
     Program PWSCF v.6.2.2 starts on 11Apr2018 at  4:55:47 

     This program is part of the open-source Quantum ESPRESSO suite
     for quantum simulation of materials; please cite
         "P. Giannozzi et al., J. Phys.:Condens. Matter 21 395502 (2009);
         "P. Giannozzi et al., J. Phys.:Condens. Matter 29 465901 (2017);
          URL http://www.quantum-espresso.org", 
     in publications or presentations arising from this work. More details at
     http://www.quantum-espresso.org/quote

     Parallel version (MPI), running on     2 processors

     MPI processes distributed on     1 nodes
     R & G space division:  proc/nbgrp/npool/nimage =       2
     Reading input from Conv_acell-ecut.in

     Current dimensions of program PWSCF are:
     Max number of different atomic species (ntypx) = 10
     Max number of k-points (npk) =  40000
     Max angular momentum in pseudopotentials (lmaxx) =  3

     Subspace diagonalization in iterative solution of the eigenvalue problem:
     a serial algorithm will be used

 
     Parallelization info
     --------------------
     sticks:   dense  smooth     PW     G-vecs:    dense   smooth      PW
     Min        1120    1120    328                26808    26808    4216
     Max        1121    1121    329                26811    26811    4219
     Sum        2241    2241    657                53619    53619    8435
 


     bravais-lattice index     =            6
     lattice parameter (alat)  =       9.1100  a.u.
     unit-cell volume          =     506.5589 (a.u.)^3
     number of atoms/cell      =            6
     number of atomic types    =            2
     number of electrons       =        52.00
     number of Kohn-Sham states=           26
     kinetic-energy cutoff     =      85.0000  Ry
     charge density cutoff     =     340.0000  Ry
     convergence threshold     =      1.0E-12
     mixing beta               =       0.7000
     number of iterations used =            8  plain     mixing
     Exchange-correlation      = PBE ( 1  4  3  4 0 0)
     nstep                     =           50


     celldm(1)=   9.110000  celldm(2)=   0.000000  celldm(3)=   0.670000
     celldm(4)=   0.000000  celldm(5)=   0.000000  celldm(6)=   0.000000

     crystal axes: (cart. coord. in units of alat)
               a(1) = (   1.000000   0.000000   0.000000 )  
               a(2) = (   0.000000   1.000000   0.000000 )  
               a(3) = (   0.000000   0.000000   0.670000 )  

     reciprocal axes: (cart. coord. in units 2 pi/alat)
               b(1) = (  1.000000  0.000000  0.000000 )  
               b(2) = (  0.000000  1.000000  0.000000 )  
               b(3) = (  0.000000  0.000000  1.492537 )  


     PseudoPot. # 1 for Sn read from file:
     ../../Pseudo_potentials/Sn_PBE.upf
     MD5 check sum: 78e6386ae56e929f0568ae8bf606a80c
     Pseudo is Norm-conserving + core correction, Zval = 14.0
     Generated using ONCVPSP code by D. R. Hamann
     Using radial grid of 1628 points,  6 beta functions with: 
                l(1) =   0
                l(2) =   0
                l(3) =   1
                l(4) =   1
                l(5) =   2
                l(6) =   2

     PseudoPot. # 2 for O  read from file:
     ../../Pseudo_potentials/O_PBE.upf
     MD5 check sum: 3e3f909f7470e8921608ab6b1f57bbae
     Pseudo is Norm-conserving + core correction, Zval =  6.0
     Generated using ONCVPSP code by D. R. Hamann
     Using radial grid of  936 points,  5 beta functions with: 
                l(1) =   0
                l(2) =   0
                l(3) =   1
                l(4) =   1
                l(5) =   2

     atomic species   valence    mass     pseudopotential
        Sn            14.00   118.71000     Sn( 1.00)
        O              6.00    15.99900     O ( 1.00)

      4 Sym. Ops. (no inversion) found



   Cartesian axes

     site n.     atom                  positions (alat units)
         1           Sn  tau(   1) = (   0.0000000   0.0000000   0.0000000  )
         2           Sn  tau(   2) = (   0.5000000   0.5000000   0.3350000  )
         3           O   tau(   3) = (   0.8060000   0.1930000   0.3350000  )
         4           O   tau(   4) = (   0.1930000   0.8060000   0.3350000  )
         5           O   tau(   5) = (   0.3060000   0.3060000   0.0000000  )
         6           O   tau(   6) = (   0.6930000   0.6930000   0.0000000  )

     number of k points=   301

     Number of k-points >= 100: set verbosity='high' to print them.

     Dense  grid:    53619 G-vectors     FFT dimensions: (  54,  54,  36)

     Estimated max dynamical RAM per process >     441.43 MB

     Estimated total dynamical RAM >     882.86 MB

     Initial potential from superposition of free atoms

     starting charge   51.99690, renormalised to   52.00000
     Starting wfc are   34 randomized atomic wfcs

     total cpu time spent up to now is       26.7 secs

     Self-consistent Calculation

     iteration #  1     ecut=    85.00 Ry     beta= 0.70
     Davidson diagonalization with overlap
     ethr =  1.00E-02,  avg # of iterations =  2.0

     total cpu time spent up to now is       84.4 secs

     total energy              =    -446.85115932 Ry
     Harris-Foulkes estimate   =    -448.03310845 Ry
     estimated scf accuracy    <       1.60456667 Ry

     iteration #  2     ecut=    85.00 Ry     beta= 0.70
     Davidson diagonalization with overlap
     ethr =  3.09E-03,  avg # of iterations =  3.1

     total cpu time spent up to now is      155.5 secs

     total energy              =    -447.26386553 Ry
     Harris-Foulkes estimate   =    -448.06183591 Ry
     estimated scf accuracy    <       1.64439652 Ry

     iteration #  3     ecut=    85.00 Ry     beta= 0.70
     Davidson diagonalization with overlap
     ethr =  3.09E-03,  avg # of iterations =  3.0

     total cpu time spent up to now is      222.8 secs

     total energy              =    -447.58658037 Ry
     Harris-Foulkes estimate   =    -447.58723920 Ry
     estimated scf accuracy    <       0.00601717 Ry

     iteration #  4     ecut=    85.00 Ry     beta= 0.70
     Davidson diagonalization with overlap
     ethr =  1.16E-05,  avg # of iterations =  3.0

     total cpu time spent up to now is      297.2 secs

     total energy              =    -447.58990991 Ry
     Harris-Foulkes estimate   =    -447.59016924 Ry
     estimated scf accuracy    <       0.00054706 Ry

     iteration #  5     ecut=    85.00 Ry     beta= 0.70
     Davidson diagonalization with overlap
     ethr =  1.05E-06,  avg # of iterations =  2.1

     total cpu time spent up to now is      352.5 secs

     total energy              =    -447.58994149 Ry
     Harris-Foulkes estimate   =    -447.58995605 Ry
     estimated scf accuracy    <       0.00004014 Ry

     iteration #  6     ecut=    85.00 Ry     beta= 0.70
     Davidson diagonalization with overlap
     ethr =  7.72E-08,  avg # of iterations =  3.3

     total cpu time spent up to now is      429.9 secs

     total energy              =    -447.59001619 Ry
     Harris-Foulkes estimate   =    -447.59001987 Ry
     estimated scf accuracy    <       0.00001018 Ry

     iteration #  7     ecut=    85.00 Ry     beta= 0.70
     Davidson diagonalization with overlap
     ethr =  1.96E-08,  avg # of iterations =  3.2

     total cpu time spent up to now is      497.0 secs

     total energy              =    -447.59001757 Ry
     Harris-Foulkes estimate   =    -447.59001868 Ry
     estimated scf accuracy    <       0.00000244 Ry

     iteration #  8     ecut=    85.00 Ry     beta= 0.70
     Davidson diagonalization with overlap
     ethr =  4.70E-09,  avg # of iterations =  3.0

     total cpu time spent up to now is      566.1 secs

     total energy              =    -447.59001821 Ry
     Harris-Foulkes estimate   =    -447.59001826 Ry
     estimated scf accuracy    <       0.00000014 Ry

     iteration #  9     ecut=    85.00 Ry     beta= 0.70
     Davidson diagonalization with overlap
     ethr =  2.76E-10,  avg # of iterations =  2.9

     total cpu time spent up to now is      631.8 secs

     total energy              =    -447.59001822 Ry
     Harris-Foulkes estimate   =    -447.59001823 Ry
     estimated scf accuracy    <       0.00000002 Ry

     iteration # 10     ecut=    85.00 Ry     beta= 0.70
     Davidson diagonalization with overlap
     ethr =  4.16E-11,  avg # of iterations =  3.0

     total cpu time spent up to now is      698.6 secs

     total energy              =    -447.59001823 Ry
     Harris-Foulkes estimate   =    -447.59001823 Ry
     estimated scf accuracy    <          1.9E-09 Ry

     iteration # 11     ecut=    85.00 Ry     beta= 0.70
     Davidson diagonalization with overlap
     ethr =  3.60E-12,  avg # of iterations =  3.1

     total cpu time spent up to now is      771.3 secs

     total energy              =    -447.59001823 Ry
     Harris-Foulkes estimate   =    -447.59001823 Ry
     estimated scf accuracy    <          7.4E-11 Ry

     iteration # 12     ecut=    85.00 Ry     beta= 0.70
     Davidson diagonalization with overlap
     ethr =  1.42E-13,  avg # of iterations =  3.0

     total cpu time spent up to now is      845.5 secs

     total energy              =    -447.59001823 Ry
     Harris-Foulkes estimate   =    -447.59001823 Ry
     estimated scf accuracy    <          5.1E-12 Ry

     iteration # 13     ecut=    85.00 Ry     beta= 0.70
     Davidson diagonalization with overlap
     ethr =  1.00E-13,  avg # of iterations =  1.6

     total cpu time spent up to now is      898.4 secs

     End of self-consistent calculation

     Number of k-points >= 100: set verbosity='high' to print the bands.

     highest occupied level (ev):     9.0669

!    total energy              =    -447.59001823 Ry
     Harris-Foulkes estimate   =    -447.59001823 Ry
     estimated scf accuracy    <          3.3E-13 Ry

     The total energy is the sum of the following terms:

     one-electron contribution =    -124.05172477 Ry
     hartree contribution      =     101.06778187 Ry
     xc contribution           =    -122.12473953 Ry
     ewald contribution        =    -302.48133580 Ry

     convergence has been achieved in  13 iterations

     Forces acting on atoms (cartesian axes, Ry/au):

     atom    1 type  1   force =    -0.00106056   -0.00106056    0.00000000
     atom    2 type  1   force =    -0.00135234   -0.00135234    0.00000000
     atom    3 type  2   force =    -0.00045197    0.00041882    0.00000000
     atom    4 type  2   force =     0.00041882   -0.00045197    0.00000000
     atom    5 type  2   force =     0.00079229    0.00079229    0.00000000
     atom    6 type  2   force =     0.00165376    0.00165376    0.00000000

     Total force =     0.003659     Total SCF correction =     0.000003


     Computing stress (Cartesian axis) and pressure

          total   stress  (Ry/bohr**3)                   (kbar)     P=   21.09
   0.00011866   0.00000011   0.00000000         17.46      0.02      0.00
   0.00000011   0.00011866   0.00000000          0.02     17.46      0.00
   0.00000000   0.00000000   0.00019274          0.00      0.00     28.35


     BFGS Geometry Optimization

     number of scf cycles    =   1
     number of bfgs steps    =   0

     enthalpy new            =    -447.5900182278 Ry

     new trust radius        =       0.0216894576 bohr
     new conv_thr            =            1.0E-12 Ry

     new unit-cell volume =    512.02418 a.u.^3 (    75.87415 Ang^3 )
     density =      6.59662 g/cm^3

CELL_PARAMETERS (alat=  9.11000000)
   1.002966612   0.000000000   0.000000000
   0.000000000   1.002966612   0.000000000
   0.000000000   0.000000000   0.673228335

ATOMIC_POSITIONS (crystal)
Sn      -0.000116417  -0.000116417   0.000000000
Sn       0.499851555   0.499851555   0.500000000
O        0.805950388   0.193045973   0.500000000
O        0.193045973   0.805950388   0.500000000
O        0.306086969   0.306086969   0.000000000
O        0.693181533   0.693181533   0.000000000



     Writing output data file SnO2.save
     NEW-OLD atomic charge density approx. for the potential
     extrapolated charge   52.55501, renormalised to   52.00000

     total cpu time spent up to now is      926.4 secs

     Self-consistent Calculation

     iteration #  1     ecut=    85.00 Ry     beta= 0.70
     Davidson diagonalization with overlap
     ethr =  1.00E-06,  avg # of iterations =  4.2

     total cpu time spent up to now is     1031.9 secs

     total energy              =    -447.57386758 Ry
     Harris-Foulkes estimate   =    -446.36402649 Ry
     estimated scf accuracy    <       0.01022672 Ry

     iteration #  2     ecut=    85.00 Ry     beta= 0.70
     Davidson diagonalization with overlap
     ethr =  1.97E-05,  avg # of iterations =  4.0

     total cpu time spent up to now is     1120.7 secs

     total energy              =    -447.58949897 Ry
     Harris-Foulkes estimate   =    -447.59949211 Ry
     estimated scf accuracy    <       0.02739125 Ry

     iteration #  3     ecut=    85.00 Ry     beta= 0.70
     Davidson diagonalization with overlap
     ethr =  1.97E-05,  avg # of iterations =  2.0

     total cpu time spent up to now is     1185.2 secs

     total energy              =    -447.59099226 Ry
     Harris-Foulkes estimate   =    -447.59185597 Ry
     estimated scf accuracy    <       0.00348387 Ry

     iteration #  4     ecut=    85.00 Ry     beta= 0.70
     Davidson diagonalization with overlap
     ethr =  6.70E-06,  avg # of iterations =  1.0

     total cpu time spent up to now is     1236.5 secs

     total energy              =    -447.59038443 Ry
     Harris-Foulkes estimate   =    -447.59108013 Ry
     estimated scf accuracy    <       0.00187058 Ry

     iteration #  5     ecut=    85.00 Ry     beta= 0.70
     Davidson diagonalization with overlap
     ethr =  3.60E-06,  avg # of iterations =  2.0

     total cpu time spent up to now is     1294.0 secs

     total energy              =    -447.59040627 Ry
     Harris-Foulkes estimate   =    -447.59053200 Ry
     estimated scf accuracy    <       0.00028119 Ry

     iteration #  6     ecut=    85.00 Ry     beta= 0.70
     Davidson diagonalization with overlap
     ethr =  5.41E-07,  avg # of iterations =  3.0

     total cpu time spent up to now is     1359.4 secs

     total energy              =    -447.59044607 Ry
     Harris-Foulkes estimate   =    -447.59045016 Ry
     estimated scf accuracy    <       0.00001370 Ry

     iteration #  7     ecut=    85.00 Ry     beta= 0.70
     Davidson diagonalization with overlap
     ethr =  2.63E-08,  avg # of iterations =  2.0

     total cpu time spent up to now is     1416.6 secs

     total energy              =    -447.59044418 Ry
     Harris-Foulkes estimate   =    -447.59044704 Ry
     estimated scf accuracy    <       0.00000721 Ry

     iteration #  8     ecut=    85.00 Ry     beta= 0.70
     Davidson diagonalization with overlap
     ethr =  1.39E-08,  avg # of iterations =  1.9

     total cpu time spent up to now is     1469.7 secs

     total energy              =    -447.59044389 Ry
     Harris-Foulkes estimate   =    -447.59044466 Ry
     estimated scf accuracy    <       0.00000151 Ry

     iteration #  9     ecut=    85.00 Ry     beta= 0.70
     Davidson diagonalization with overlap
     ethr =  2.90E-09,  avg # of iterations =  2.1

     total cpu time spent up to now is     1537.9 secs

     total energy              =    -447.59044425 Ry
     Harris-Foulkes estimate   =    -447.59044425 Ry
     estimated scf accuracy    <          8.9E-09 Ry

     iteration # 10     ecut=    85.00 Ry     beta= 0.70
     Davidson diagonalization with overlap
     ethr =  1.71E-11,  avg # of iterations =  3.4

     total cpu time spent up to now is     1609.6 secs

     total energy              =    -447.59044425 Ry
     Harris-Foulkes estimate   =    -447.59044425 Ry
     estimated scf accuracy    <          7.0E-09 Ry

     iteration # 11     ecut=    85.00 Ry     beta= 0.70
     Davidson diagonalization with overlap
     ethr =  1.34E-11,  avg # of iterations =  2.0

     total cpu time spent up to now is     1664.2 secs

     total energy              =    -447.59044425 Ry
     Harris-Foulkes estimate   =    -447.59044425 Ry
     estimated scf accuracy    <          1.6E-09 Ry

     iteration # 12     ecut=    85.00 Ry     beta= 0.70
     Davidson diagonalization with overlap
     ethr =  3.02E-12,  avg # of iterations =  3.0

     total cpu time spent up to now is     1732.3 secs

     total energy              =    -447.59044425 Ry
     Harris-Foulkes estimate   =    -447.59044425 Ry
     estimated scf accuracy    <          4.3E-11 Ry

     iteration # 13     ecut=    85.00 Ry     beta= 0.70
     Davidson diagonalization with overlap
     ethr =  1.00E-13,  avg # of iterations =  2.0

     total cpu time spent up to now is     1791.0 secs

     total energy              =    -447.59044425 Ry
     Harris-Foulkes estimate   =    -447.59044425 Ry
     estimated scf accuracy    <          1.4E-11 Ry

     iteration # 14     ecut=    85.00 Ry     beta= 0.70
     Davidson diagonalization with overlap
     ethr =  1.00E-13,  avg # of iterations =  1.0

     total cpu time spent up to now is     1842.6 secs

     End of self-consistent calculation

     Number of k-points >= 100: set verbosity='high' to print the bands.

     highest occupied level (ev):     8.9114

!    total energy              =    -447.59044425 Ry
     Harris-Foulkes estimate   =    -447.59044425 Ry
     estimated scf accuracy    <          4.7E-13 Ry

     The total energy is the sum of the following terms:

     one-electron contribution =    -125.54124112 Ry
     hartree contribution      =     101.49045003 Ry
     xc contribution           =    -122.07451722 Ry
     ewald contribution        =    -301.46513595 Ry

     convergence has been achieved in  14 iterations

     Forces acting on atoms (cartesian axes, Ry/au):

     atom    1 type  1   force =    -0.00059460   -0.00059460    0.00000000
     atom    2 type  1   force =    -0.00046807   -0.00046807    0.00000000
     atom    3 type  2   force =     0.00098289   -0.00082104    0.00000000
     atom    4 type  2   force =    -0.00082104    0.00098289    0.00000000
     atom    5 type  2   force =     0.00135110    0.00135110    0.00000000
     atom    6 type  2   force =    -0.00045027   -0.00045027    0.00000000

     Total force =     0.002912     Total SCF correction =     0.000001


     Computing stress (Cartesian axis) and pressure

          total   stress  (Ry/bohr**3)                   (kbar)     P=    0.33
   0.00000022   0.00000003   0.00000000          0.03      0.00      0.00
   0.00000003   0.00000022   0.00000000          0.00      0.03      0.00
   0.00000000   0.00000000   0.00000633          0.00      0.00      0.93


     number of scf cycles    =   2
     number of bfgs steps    =   1

     enthalpy old            =    -447.5900182278 Ry
     enthalpy new            =    -447.5904442481 Ry

     CASE: enthalpy_new < enthalpy_old

     new trust radius        =       0.0019758208 bohr
     new conv_thr            =            1.0E-12 Ry

     new unit-cell volume =    512.17190 a.u.^3 (    75.89604 Ang^3 )
     density =      6.59472 g/cm^3

CELL_PARAMETERS (alat=  9.11000000)
   1.003004244   0.000000000   0.000000000
   0.000000000   1.003004244   0.000000000
   0.000000000   0.000000000   0.673372037

ATOMIC_POSITIONS (crystal)
Sn      -0.000184552  -0.000184552   0.000000000
Sn       0.499797308   0.499797308   0.500000000
O        0.806060409   0.192954118   0.500000000
O        0.192954118   0.806060409   0.500000000
O        0.306239876   0.306239876   0.000000000
O        0.693132841   0.693132841   0.000000000



     Writing output data file SnO2.save
     NEW-OLD atomic charge density approx. for the potential
     extrapolated charge   52.01500, renormalised to   52.00000

     total cpu time spent up to now is     1870.6 secs

     Self-consistent Calculation

     iteration #  1     ecut=    85.00 Ry     beta= 0.70
     Davidson diagonalization with overlap
     ethr =  1.00E-06,  avg # of iterations =  3.0

     Threshold (ethr) on eigenvalues was too large:
     Diagonalizing with lowered threshold

     Davidson diagonalization with overlap
     ethr =  1.31E-08,  avg # of iterations =  2.1

     total cpu time spent up to now is     2010.4 secs

     total energy              =    -447.59044019 Ry
     Harris-Foulkes estimate   =    -447.55734342 Ry
     estimated scf accuracy    <       0.00000738 Ry

     iteration #  2     ecut=    85.00 Ry     beta= 0.70
     Davidson diagonalization with overlap
     ethr =  1.42E-08,  avg # of iterations =  4.0

     total cpu time spent up to now is     2098.7 secs

     total energy              =    -447.59045091 Ry
     Harris-Foulkes estimate   =    -447.59045781 Ry
     estimated scf accuracy    <       0.00001885 Ry

     iteration #  3     ecut=    85.00 Ry     beta= 0.70
     Davidson diagonalization with overlap
     ethr =  1.42E-08,  avg # of iterations =  2.0

     total cpu time spent up to now is     2163.3 secs

     total energy              =    -447.59045185 Ry
     Harris-Foulkes estimate   =    -447.59045255 Ry
     estimated scf accuracy    <       0.00000236 Ry

     iteration #  4     ecut=    85.00 Ry     beta= 0.70
     Davidson diagonalization with overlap
     ethr =  4.55E-09,  avg # of iterations =  1.0

     total cpu time spent up to now is     2214.6 secs

     total energy              =    -447.59045135 Ry
     Harris-Foulkes estimate   =    -447.59045194 Ry
     estimated scf accuracy    <       0.00000108 Ry

     iteration #  5     ecut=    85.00 Ry     beta= 0.70
     Davidson diagonalization with overlap
     ethr =  2.08E-09,  avg # of iterations =  2.1

     total cpu time spent up to now is     2286.4 secs

     total energy              =    -447.59045159 Ry
     Harris-Foulkes estimate   =    -447.59045159 Ry
     estimated scf accuracy    <          4.4E-09 Ry

     iteration #  6     ecut=    85.00 Ry     beta= 0.70
     Davidson diagonalization with overlap
     ethr =  8.56E-12,  avg # of iterations =  4.0

     total cpu time spent up to now is     2369.1 secs

     total energy              =    -447.59045159 Ry
     Harris-Foulkes estimate   =    -447.59045159 Ry
     estimated scf accuracy    <          9.8E-10 Ry

     iteration #  7     ecut=    85.00 Ry     beta= 0.70
     Davidson diagonalization with overlap
     ethr =  1.89E-12,  avg # of iterations =  3.0

     total cpu time spent up to now is     2437.0 secs

     total energy              =    -447.59045159 Ry
     Harris-Foulkes estimate   =    -447.59045159 Ry
     estimated scf accuracy    <          2.7E-10 Ry

     iteration #  8     ecut=    85.00 Ry     beta= 0.70
     Davidson diagonalization with overlap
     ethr =  5.24E-13,  avg # of iterations =  3.0

     total cpu time spent up to now is     2502.7 secs

     total energy              =    -447.59045159 Ry
     Harris-Foulkes estimate   =    -447.59045159 Ry
     estimated scf accuracy    <          8.8E-11 Ry

     iteration #  9     ecut=    85.00 Ry     beta= 0.70
     Davidson diagonalization with overlap
     ethr =  1.69E-13,  avg # of iterations =  2.8

     total cpu time spent up to now is     2567.2 secs

     End of self-consistent calculation

     Number of k-points >= 100: set verbosity='high' to print the bands.

     highest occupied level (ev):     8.9069

!    total energy              =    -447.59045159 Ry
     Harris-Foulkes estimate   =    -447.59045159 Ry
     estimated scf accuracy    <          7.9E-13 Ry

     The total energy is the sum of the following terms:

     one-electron contribution =    -125.59665184 Ry
     hartree contribution      =     101.51023553 Ry
     xc contribution           =    -122.07346374 Ry
     ewald contribution        =    -301.43057154 Ry

     convergence has been achieved in   9 iterations

     Forces acting on atoms (cartesian axes, Ry/au):

     atom    1 type  1   force =    -0.00033618   -0.00033618    0.00000000
     atom    2 type  1   force =    -0.00020134   -0.00020134    0.00000000
     atom    3 type  2   force =     0.00066486   -0.00045282    0.00000000
     atom    4 type  2   force =    -0.00045282    0.00066486    0.00000000
     atom    5 type  2   force =     0.00072022    0.00072022    0.00000000
     atom    6 type  2   force =    -0.00039474   -0.00039474    0.00000000

     Total force =     0.001718     Total SCF correction =     0.000005


     Computing stress (Cartesian axis) and pressure

          total   stress  (Ry/bohr**3)                   (kbar)     P=   -0.06
  -0.00000169   0.00000001   0.00000000         -0.25      0.00      0.00
   0.00000001  -0.00000169   0.00000000          0.00     -0.25      0.00
   0.00000000   0.00000000   0.00000219          0.00      0.00      0.32


     number of scf cycles    =   3
     number of bfgs steps    =   2

     enthalpy old            =    -447.5904442481 Ry
     enthalpy new            =    -447.5904515902 Ry

     CASE: enthalpy_new < enthalpy_old

     new trust radius        =       0.0021734844 bohr
     new conv_thr            =            1.0E-12 Ry

     new unit-cell volume =    512.22122 a.u.^3 (    75.90335 Ang^3 )
     density =      6.59408 g/cm^3

CELL_PARAMETERS (alat=  9.11000000)
   1.002960828   0.000000000   0.000000000
   0.000000000   1.002960828   0.000000000
   0.000000000   0.000000000   0.673495180

ATOMIC_POSITIONS (crystal)
Sn      -0.000263704  -0.000263704   0.000000000
Sn       0.499747800   0.499747800   0.500000000
O        0.806211438   0.192849954   0.500000000
O        0.192849954   0.806211438   0.500000000
O        0.306408074   0.306408074   0.000000000
O        0.693046438   0.693046438   0.000000000



     Writing output data file SnO2.save
     NEW-OLD atomic charge density approx. for the potential
     extrapolated charge   52.00501, renormalised to   52.00000

     total cpu time spent up to now is     2595.1 secs

     Self-consistent Calculation

     iteration #  1     ecut=    85.00 Ry     beta= 0.70
     Davidson diagonalization with overlap
     ethr =  1.00E-06,  avg # of iterations =  3.0

     Threshold (ethr) on eigenvalues was too large:
     Diagonalizing with lowered threshold

     Davidson diagonalization with overlap
     ethr =  3.49E-09,  avg # of iterations =  3.0

     total cpu time spent up to now is     2748.3 secs

     total energy              =    -447.59045401 Ry
     Harris-Foulkes estimate   =    -447.57940163 Ry
     estimated scf accuracy    <       0.00000203 Ry

     iteration #  2     ecut=    85.00 Ry     beta= 0.70
     Davidson diagonalization with overlap
     ethr =  3.90E-09,  avg # of iterations =  3.2

     total cpu time spent up to now is     2829.3 secs

     total energy              =    -447.59045512 Ry
     Harris-Foulkes estimate   =    -447.59045607 Ry
     estimated scf accuracy    <       0.00000211 Ry

     iteration #  3     ecut=    85.00 Ry     beta= 0.70
     Davidson diagonalization with overlap
     ethr =  3.90E-09,  avg # of iterations =  2.0

     total cpu time spent up to now is     2893.6 secs

     total energy              =    -447.59045537 Ry
     Harris-Foulkes estimate   =    -447.59045543 Ry
     estimated scf accuracy    <       0.00000010 Ry

     iteration #  4     ecut=    85.00 Ry     beta= 0.70
     Davidson diagonalization with overlap
     ethr =  2.01E-10,  avg # of iterations =  2.0

     total cpu time spent up to now is     2961.8 secs

     total energy              =    -447.59045538 Ry
     Harris-Foulkes estimate   =    -447.59045540 Ry
     estimated scf accuracy    <       0.00000003 Ry

     iteration #  5     ecut=    85.00 Ry     beta= 0.70
     Davidson diagonalization with overlap
     ethr =  4.85E-11,  avg # of iterations =  3.0

     total cpu time spent up to now is     3028.9 secs

     total energy              =    -447.59045539 Ry
     Harris-Foulkes estimate   =    -447.59045539 Ry
     estimated scf accuracy    <          4.7E-09 Ry

     iteration #  6     ecut=    85.00 Ry     beta= 0.70
     Davidson diagonalization with overlap
     ethr =  8.95E-12,  avg # of iterations =  3.2

     total cpu time spent up to now is     3095.6 secs

     total energy              =    -447.59045539 Ry
     Harris-Foulkes estimate   =    -447.59045539 Ry
     estimated scf accuracy    <          3.1E-10 Ry

     iteration #  7     ecut=    85.00 Ry     beta= 0.70
     Davidson diagonalization with overlap
     ethr =  5.92E-13,  avg # of iterations =  3.0

     total cpu time spent up to now is     3161.1 secs

     total energy              =    -447.59045539 Ry
     Harris-Foulkes estimate   =    -447.59045539 Ry
     estimated scf accuracy    <          1.8E-11 Ry

     iteration #  8     ecut=    85.00 Ry     beta= 0.70
     Davidson diagonalization with overlap
     ethr =  1.00E-13,  avg # of iterations =  2.6

     total cpu time spent up to now is     3221.6 secs

     total energy              =    -447.59045539 Ry
     Harris-Foulkes estimate   =    -447.59045539 Ry
     estimated scf accuracy    <          5.0E-12 Ry

     iteration #  9     ecut=    85.00 Ry     beta= 0.70
     Davidson diagonalization with overlap
     ethr =  1.00E-13,  avg # of iterations =  1.0

     total cpu time spent up to now is     3273.0 secs

     End of self-consistent calculation

     Number of k-points >= 100: set verbosity='high' to print the bands.

     highest occupied level (ev):     8.9052

!    total energy              =    -447.59045539 Ry
     Harris-Foulkes estimate   =    -447.59045539 Ry
     estimated scf accuracy    <          3.5E-13 Ry

     The total energy is the sum of the following terms:

     one-electron contribution =    -125.62639907 Ry
     hartree contribution      =     101.52316214 Ry
     xc contribution           =    -122.07333838 Ry
     ewald contribution        =    -301.41388008 Ry

     convergence has been achieved in   9 iterations

     Forces acting on atoms (cartesian axes, Ry/au):

     atom    1 type  1   force =    -0.00004746   -0.00004746    0.00000000
     atom    2 type  1   force =    -0.00001014   -0.00001014    0.00000000
     atom    3 type  2   force =     0.00021326    0.00001318    0.00000000
     atom    4 type  2   force =     0.00001318    0.00021326    0.00000000
     atom    5 type  2   force =     0.00001562    0.00001562    0.00000000
     atom    6 type  2   force =    -0.00018446   -0.00018446    0.00000000

     Total force =     0.000406     Total SCF correction =     0.000003


     Computing stress (Cartesian axis) and pressure

          total   stress  (Ry/bohr**3)                   (kbar)     P=   -0.06
  -0.00000110   0.00000000   0.00000000         -0.16      0.00      0.00
   0.00000000  -0.00000110   0.00000000          0.00     -0.16      0.00
   0.00000000   0.00000000   0.00000091          0.00      0.00      0.13


     number of scf cycles    =   4
     number of bfgs steps    =   3

     enthalpy old            =    -447.5904515902 Ry
     enthalpy new            =    -447.5904553886 Ry

     CASE: enthalpy_new < enthalpy_old

     new trust radius        =       0.0004481577 bohr
     new conv_thr            =            1.0E-12 Ry

     new unit-cell volume =    512.21760 a.u.^3 (    75.90282 Ang^3 )
     density =      6.59413 g/cm^3

CELL_PARAMETERS (alat=  9.11000000)
   1.002927826   0.000000000   0.000000000
   0.000000000   1.002927826   0.000000000
   0.000000000   0.000000000   0.673534744

ATOMIC_POSITIONS (crystal)
Sn      -0.000280460  -0.000280460   0.000000000
Sn       0.499739428   0.499739428   0.500000000
O        0.806258719   0.192838110   0.500000000
O        0.192838110   0.806258719   0.500000000
O        0.306432448   0.306432448   0.000000000
O        0.693011755   0.693011755   0.000000000



     Writing output data file SnO2.save
     NEW-OLD atomic charge density approx. for the potential
     extrapolated charge   51.99963, renormalised to   52.00000

     total cpu time spent up to now is     3301.2 secs

     Self-consistent Calculation

     iteration #  1     ecut=    85.00 Ry     beta= 0.70
     Davidson diagonalization with overlap
     ethr =  1.00E-06,  avg # of iterations =  2.0

     Threshold (ethr) on eigenvalues was too large:
     Diagonalizing with lowered threshold

     Davidson diagonalization with overlap
     ethr =  2.35E-10,  avg # of iterations =  3.7

     total cpu time spent up to now is     3456.0 secs

     total energy              =    -447.59045560 Ry
     Harris-Foulkes estimate   =    -447.59126711 Ry
     estimated scf accuracy    <       0.00000011 Ry

     iteration #  2     ecut=    85.00 Ry     beta= 0.70
     Davidson diagonalization with overlap
     ethr =  2.08E-10,  avg # of iterations =  2.1

     total cpu time spent up to now is     3526.5 secs

     total energy              =    -447.59045563 Ry
     Harris-Foulkes estimate   =    -447.59045564 Ry
     estimated scf accuracy    <       0.00000002 Ry

     iteration #  3     ecut=    85.00 Ry     beta= 0.70
     Davidson diagonalization with overlap
     ethr =  3.23E-11,  avg # of iterations =  2.8

     total cpu time spent up to now is     3593.8 secs

     total energy              =    -447.59045563 Ry
     Harris-Foulkes estimate   =    -447.59045564 Ry
     estimated scf accuracy    <          3.4E-09 Ry

     iteration #  4     ecut=    85.00 Ry     beta= 0.70
     Davidson diagonalization with overlap
     ethr =  6.54E-12,  avg # of iterations =  3.1

     total cpu time spent up to now is     3664.2 secs

     total energy              =    -447.59045563 Ry
     Harris-Foulkes estimate   =    -447.59045563 Ry
     estimated scf accuracy    <          8.1E-10 Ry

     iteration #  5     ecut=    85.00 Ry     beta= 0.70
     Davidson diagonalization with overlap
     ethr =  1.55E-12,  avg # of iterations =  3.6

     total cpu time spent up to now is     3733.6 secs

     total energy              =    -447.59045563 Ry
     Harris-Foulkes estimate   =    -447.59045563 Ry
     estimated scf accuracy    <          2.4E-10 Ry

     iteration #  6     ecut=    85.00 Ry     beta= 0.70
     Davidson diagonalization with overlap
     ethr =  4.60E-13,  avg # of iterations =  3.0

     total cpu time spent up to now is     3799.0 secs

     total energy              =    -447.59045563 Ry
     Harris-Foulkes estimate   =    -447.59045563 Ry
     estimated scf accuracy    <          4.7E-12 Ry

     iteration #  7     ecut=    85.00 Ry     beta= 0.70
     Davidson diagonalization with overlap
     ethr =  1.00E-13,  avg # of iterations =  1.1

     total cpu time spent up to now is     3850.5 secs

     End of self-consistent calculation

     Number of k-points >= 100: set verbosity='high' to print the bands.

     highest occupied level (ev):     8.9052

!    total energy              =    -447.59045563 Ry
     Harris-Foulkes estimate   =    -447.59045563 Ry
     estimated scf accuracy    <          5.0E-13 Ry

     The total energy is the sum of the following terms:

     one-electron contribution =    -125.62657111 Ry
     hartree contribution      =     101.52372249 Ry
     xc contribution           =    -122.07340941 Ry
     ewald contribution        =    -301.41419761 Ry

     convergence has been achieved in   7 iterations

     Forces acting on atoms (cartesian axes, Ry/au):

     atom    1 type  1   force =    -0.00000541   -0.00000541    0.00000000
     atom    2 type  1   force =    -0.00002166   -0.00002166    0.00000000
     atom    3 type  2   force =     0.00009173    0.00010560    0.00000000
     atom    4 type  2   force =     0.00010560    0.00009173    0.00000000
     atom    5 type  2   force =    -0.00009196   -0.00009196    0.00000000
     atom    6 type  2   force =    -0.00007829   -0.00007829    0.00000000

     Total force =     0.000263     Total SCF correction =     0.000004


     Computing stress (Cartesian axis) and pressure

          total   stress  (Ry/bohr**3)                   (kbar)     P=   -0.02
  -0.00000055  -0.00000000   0.00000000         -0.08     -0.00      0.00
  -0.00000000  -0.00000055   0.00000000         -0.00     -0.08      0.00
   0.00000000   0.00000000   0.00000060          0.00      0.00      0.09


     number of scf cycles    =   5
     number of bfgs steps    =   4

     enthalpy old            =    -447.5904553886 Ry
     enthalpy new            =    -447.5904556348 Ry

     CASE: enthalpy_new < enthalpy_old

     new trust radius        =       0.0002856667 bohr
     new conv_thr            =            1.0E-12 Ry

     new unit-cell volume =    512.21010 a.u.^3 (    75.90171 Ang^3 )
     density =      6.59423 g/cm^3

CELL_PARAMETERS (alat=  9.11000000)
   1.002900399   0.000000000   0.000000000
   0.000000000   1.002900399   0.000000000
   0.000000000   0.000000000   0.673561724

ATOMIC_POSITIONS (crystal)
Sn      -0.000287263  -0.000287263   0.000000000
Sn       0.499732697   0.499732697   0.500000000
O        0.806287591   0.192848821   0.500000000
O        0.192848821   0.806287591   0.500000000
O        0.306428507   0.306428507   0.000000000
O        0.692989647   0.692989647   0.000000000



     Writing output data file SnO2.save
     NEW-OLD atomic charge density approx. for the potential
     extrapolated charge   51.99924, renormalised to   52.00000

     total cpu time spent up to now is     3878.6 secs

     Self-consistent Calculation

     iteration #  1     ecut=    85.00 Ry     beta= 0.70
     Davidson diagonalization with overlap
     ethr =  1.00E-06,  avg # of iterations =  1.6

     Threshold (ethr) on eigenvalues was too large:
     Diagonalizing with lowered threshold

     Davidson diagonalization with overlap
     ethr =  3.15E-10,  avg # of iterations =  3.5

     total cpu time spent up to now is     4025.1 secs

     total energy              =    -447.59045570 Ry
     Harris-Foulkes estimate   =    -447.59213647 Ry
     estimated scf accuracy    <       0.00000005 Ry

     iteration #  2     ecut=    85.00 Ry     beta= 0.70
     Davidson diagonalization with overlap
     ethr =  1.02E-10,  avg # of iterations =  3.0

     total cpu time spent up to now is     4106.1 secs

     total energy              =    -447.59045573 Ry
     Harris-Foulkes estimate   =    -447.59045576 Ry
     estimated scf accuracy    <       0.00000005 Ry

     iteration #  3     ecut=    85.00 Ry     beta= 0.70
     Davidson diagonalization with overlap
     ethr =  9.89E-11,  avg # of iterations =  2.0

     total cpu time spent up to now is     4170.1 secs

     total energy              =    -447.59045574 Ry
     Harris-Foulkes estimate   =    -447.59045574 Ry
     estimated scf accuracy    <          2.9E-09 Ry

     iteration #  4     ecut=    85.00 Ry     beta= 0.70
     Davidson diagonalization with overlap
     ethr =  5.66E-12,  avg # of iterations =  3.0

     total cpu time spent up to now is     4243.6 secs

     total energy              =    -447.59045574 Ry
     Harris-Foulkes estimate   =    -447.59045574 Ry
     estimated scf accuracy    <          1.3E-09 Ry

     iteration #  5     ecut=    85.00 Ry     beta= 0.70
     Davidson diagonalization with overlap
     ethr =  2.50E-12,  avg # of iterations =  3.2

     total cpu time spent up to now is     4312.2 secs

     total energy              =    -447.59045574 Ry
     Harris-Foulkes estimate   =    -447.59045574 Ry
     estimated scf accuracy    <          4.0E-10 Ry

     iteration #  6     ecut=    85.00 Ry     beta= 0.70
     Davidson diagonalization with overlap
     ethr =  7.63E-13,  avg # of iterations =  2.9

     total cpu time spent up to now is     4377.7 secs

     total energy              =    -447.59045574 Ry
     Harris-Foulkes estimate   =    -447.59045574 Ry
     estimated scf accuracy    <          4.8E-12 Ry

     iteration #  7     ecut=    85.00 Ry     beta= 0.70
     Davidson diagonalization with overlap
     ethr =  1.00E-13,  avg # of iterations =  1.5

     total cpu time spent up to now is     4430.5 secs

     End of self-consistent calculation

     Number of k-points >= 100: set verbosity='high' to print the bands.

     highest occupied level (ev):     8.9054

!    total energy              =    -447.59045574 Ry
     Harris-Foulkes estimate   =    -447.59045574 Ry
     estimated scf accuracy    <          9.8E-13 Ry

     The total energy is the sum of the following terms:

     one-electron contribution =    -125.62242004 Ry
     hartree contribution      =     101.52221121 Ry
     xc contribution           =    -122.07345502 Ry
     ewald contribution        =    -301.41679189 Ry

     convergence has been achieved in   7 iterations

     Forces acting on atoms (cartesian axes, Ry/au):

     atom    1 type  1   force =    -0.00000880   -0.00000880    0.00000000
     atom    2 type  1   force =    -0.00004799   -0.00004799    0.00000000
     atom    3 type  2   force =     0.00004024    0.00011769    0.00000000
     atom    4 type  2   force =     0.00011769    0.00004024    0.00000000
     atom    5 type  2   force =    -0.00008919   -0.00008919    0.00000000
     atom    6 type  2   force =    -0.00001195   -0.00001195    0.00000000

     Total force =     0.000228     Total SCF correction =     0.000004


     Computing stress (Cartesian axis) and pressure

          total   stress  (Ry/bohr**3)                   (kbar)     P=   -0.00
  -0.00000016  -0.00000000   0.00000000         -0.02     -0.00      0.00
  -0.00000000  -0.00000016   0.00000000         -0.00     -0.02      0.00
   0.00000000   0.00000000   0.00000024          0.00      0.00      0.03


     number of scf cycles    =   6
     number of bfgs steps    =   5

     enthalpy old            =    -447.5904556348 Ry
     enthalpy new            =    -447.5904557399 Ry

     CASE: enthalpy_new < enthalpy_old

     new trust radius        =       0.0003142248 bohr
     new conv_thr            =            1.0E-12 Ry

     new unit-cell volume =    512.20163 a.u.^3 (    75.90045 Ang^3 )
     density =      6.59434 g/cm^3

CELL_PARAMETERS (alat=  9.11000000)
   1.002875695   0.000000000   0.000000000
   0.000000000   1.002875695   0.000000000
   0.000000000   0.000000000   0.673583762

ATOMIC_POSITIONS (crystal)
Sn      -0.000293564  -0.000293564   0.000000000
Sn       0.499721283   0.499721283   0.500000000
O        0.806313321   0.192871643   0.500000000
O        0.192871643   0.806313321   0.500000000
O        0.306414559   0.306414559   0.000000000
O        0.692972758   0.692972758   0.000000000



     Writing output data file SnO2.save
     NEW-OLD atomic charge density approx. for the potential
     extrapolated charge   51.99914, renormalised to   52.00000

     total cpu time spent up to now is     4458.5 secs

     Self-consistent Calculation

     iteration #  1     ecut=    85.00 Ry     beta= 0.70
     Davidson diagonalization with overlap
     ethr =  1.00E-06,  avg # of iterations =  2.0

     Threshold (ethr) on eigenvalues was too large:
     Diagonalizing with lowered threshold

     Davidson diagonalization with overlap
     ethr =  4.52E-10,  avg # of iterations =  3.3

     total cpu time spent up to now is     4603.7 secs

     total energy              =    -447.59045578 Ry
     Harris-Foulkes estimate   =    -447.59235570 Ry
     estimated scf accuracy    <       0.00000006 Ry

     iteration #  2     ecut=    85.00 Ry     beta= 0.70
     Davidson diagonalization with overlap
     ethr =  1.07E-10,  avg # of iterations =  3.1

     total cpu time spent up to now is     4685.8 secs

     total energy              =    -447.59045582 Ry
     Harris-Foulkes estimate   =    -447.59045585 Ry
     estimated scf accuracy    <       0.00000006 Ry

     iteration #  3     ecut=    85.00 Ry     beta= 0.70
     Davidson diagonalization with overlap
     ethr =  1.07E-10,  avg # of iterations =  2.0

     total cpu time spent up to now is     4749.8 secs

     total energy              =    -447.59045583 Ry
     Harris-Foulkes estimate   =    -447.59045583 Ry
     estimated scf accuracy    <          3.9E-09 Ry

     iteration #  4     ecut=    85.00 Ry     beta= 0.70
     Davidson diagonalization with overlap
     ethr =  7.48E-12,  avg # of iterations =  2.3

     total cpu time spent up to now is     4819.1 secs

     total energy              =    -447.59045583 Ry
     Harris-Foulkes estimate   =    -447.59045583 Ry
     estimated scf accuracy    <          1.3E-09 Ry

     iteration #  5     ecut=    85.00 Ry     beta= 0.70
     Davidson diagonalization with overlap
     ethr =  2.45E-12,  avg # of iterations =  3.1

     total cpu time spent up to now is     4887.5 secs

     total energy              =    -447.59045583 Ry
     Harris-Foulkes estimate   =    -447.59045583 Ry
     estimated scf accuracy    <          3.8E-10 Ry

     iteration #  6     ecut=    85.00 Ry     beta= 0.70
     Davidson diagonalization with overlap
     ethr =  7.29E-13,  avg # of iterations =  3.0

     total cpu time spent up to now is     4953.2 secs

     total energy              =    -447.59045583 Ry
     Harris-Foulkes estimate   =    -447.59045583 Ry
     estimated scf accuracy    <          7.2E-12 Ry

     iteration #  7     ecut=    85.00 Ry     beta= 0.70
     Davidson diagonalization with overlap
     ethr =  1.00E-13,  avg # of iterations =  1.5

     total cpu time spent up to now is     5006.2 secs

     End of self-consistent calculation

     Number of k-points >= 100: set verbosity='high' to print the bands.

     highest occupied level (ev):     8.9057

!    total energy              =    -447.59045583 Ry
     Harris-Foulkes estimate   =    -447.59045583 Ry
     estimated scf accuracy    <          5.2E-13 Ry

     The total energy is the sum of the following terms:

     one-electron contribution =    -125.61685643 Ry
     hartree contribution      =     101.51999709 Ry
     xc contribution           =    -122.07348740 Ry
     ewald contribution        =    -301.42010908 Ry

     convergence has been achieved in   7 iterations

     Forces acting on atoms (cartesian axes, Ry/au):

     atom    1 type  1   force =    -0.00002494   -0.00002494    0.00000000
     atom    2 type  1   force =    -0.00006137   -0.00006137    0.00000000
     atom    3 type  2   force =     0.00001353    0.00009818    0.00000000
     atom    4 type  2   force =     0.00009818    0.00001353    0.00000000
     atom    5 type  2   force =    -0.00005513   -0.00005513    0.00000000
     atom    6 type  2   force =     0.00002973    0.00002973    0.00000000

     Total force =     0.000190     Total SCF correction =     0.000005


     Computing stress (Cartesian axis) and pressure

          total   stress  (Ry/bohr**3)                   (kbar)     P=    0.01
   0.00000015  -0.00000000   0.00000000          0.02     -0.00      0.00
  -0.00000000   0.00000015   0.00000000         -0.00      0.02      0.00
   0.00000000   0.00000000  -0.00000015          0.00      0.00     -0.02


     number of scf cycles    =   7
     number of bfgs steps    =   6

     enthalpy old            =    -447.5904557399 Ry
     enthalpy new            =    -447.5904558274 Ry

     CASE: enthalpy_new < enthalpy_old

     new trust radius        =       0.0004713256 bohr
     new conv_thr            =            1.0E-12 Ry

     new unit-cell volume =    512.19137 a.u.^3 (    75.89893 Ang^3 )
     density =      6.59447 g/cm^3

CELL_PARAMETERS (alat=  9.11000000)
   1.002852066   0.000000000   0.000000000
   0.000000000   1.002852066   0.000000000
   0.000000000   0.000000000   0.673602022

ATOMIC_POSITIONS (crystal)
Sn      -0.000305361  -0.000305361   0.000000000
Sn       0.499699188   0.499699188   0.500000000
O        0.806345189   0.192912212   0.500000000
O        0.192912212   0.806345189   0.500000000
O        0.306390925   0.306390925   0.000000000
O        0.692957847   0.692957847   0.000000000



     Writing output data file SnO2.save
     NEW-OLD atomic charge density approx. for the potential
     extrapolated charge   51.99896, renormalised to   52.00000

     total cpu time spent up to now is     5034.3 secs

     Self-consistent Calculation

     iteration #  1     ecut=    85.00 Ry     beta= 0.70
     Davidson diagonalization with overlap
     ethr =  1.00E-06,  avg # of iterations =  2.0

     Threshold (ethr) on eigenvalues was too large:
     Diagonalizing with lowered threshold

     Davidson diagonalization with overlap
     ethr =  1.25E-10,  avg # of iterations =  4.1

     total cpu time spent up to now is     5190.6 secs

     total energy              =    -447.59045584 Ry
     Harris-Foulkes estimate   =    -447.59275347 Ry
     estimated scf accuracy    <       0.00000010 Ry

     iteration #  2     ecut=    85.00 Ry     beta= 0.70
     Davidson diagonalization with overlap
     ethr =  1.86E-10,  avg # of iterations =  3.0

     total cpu time spent up to now is     5271.3 secs

     total energy              =    -447.59045589 Ry
     Harris-Foulkes estimate   =    -447.59045594 Ry
     estimated scf accuracy    <       0.00000009 Ry

     iteration #  3     ecut=    85.00 Ry     beta= 0.70
     Davidson diagonalization with overlap
     ethr =  1.78E-10,  avg # of iterations =  2.0

     total cpu time spent up to now is     5335.4 secs

     total energy              =    -447.59045590 Ry
     Harris-Foulkes estimate   =    -447.59045591 Ry
     estimated scf accuracy    <          5.0E-09 Ry

     iteration #  4     ecut=    85.00 Ry     beta= 0.70
     Davidson diagonalization with overlap
     ethr =  9.53E-12,  avg # of iterations =  2.4

     total cpu time spent up to now is     5406.8 secs

     total energy              =    -447.59045591 Ry
     Harris-Foulkes estimate   =    -447.59045591 Ry
     estimated scf accuracy    <          1.6E-09 Ry

     iteration #  5     ecut=    85.00 Ry     beta= 0.70
     Davidson diagonalization with overlap
     ethr =  2.99E-12,  avg # of iterations =  3.3

     total cpu time spent up to now is     5476.5 secs

     total energy              =    -447.59045591 Ry
     Harris-Foulkes estimate   =    -447.59045591 Ry
     estimated scf accuracy    <          5.3E-10 Ry

     iteration #  6     ecut=    85.00 Ry     beta= 0.70
     Davidson diagonalization with overlap
     ethr =  1.03E-12,  avg # of iterations =  3.0

     total cpu time spent up to now is     5541.6 secs

     total energy              =    -447.59045591 Ry
     Harris-Foulkes estimate   =    -447.59045591 Ry
     estimated scf accuracy    <          1.3E-11 Ry

     iteration #  7     ecut=    85.00 Ry     beta= 0.70
     Davidson diagonalization with overlap
     ethr =  1.00E-13,  avg # of iterations =  2.0

     total cpu time spent up to now is     5598.1 secs

     total energy              =    -447.59045591 Ry
     Harris-Foulkes estimate   =    -447.59045591 Ry
     estimated scf accuracy    <          1.2E-12 Ry

     iteration #  8     ecut=    85.00 Ry     beta= 0.70
     Davidson diagonalization with overlap
     ethr =  1.00E-13,  avg # of iterations =  1.0

     total cpu time spent up to now is     5649.9 secs

     End of self-consistent calculation

     Number of k-points >= 100: set verbosity='high' to print the bands.

     highest occupied level (ev):     8.9060

!    total energy              =    -447.59045591 Ry
     Harris-Foulkes estimate   =    -447.59045591 Ry
     estimated scf accuracy    <          4.1E-14 Ry

     The total energy is the sum of the following terms:

     one-electron contribution =    -125.60985781 Ry
     hartree contribution      =     101.51712954 Ry
     xc contribution           =    -122.07351767 Ry
     ewald contribution        =    -301.42420996 Ry

     convergence has been achieved in   8 iterations

     Forces acting on atoms (cartesian axes, Ry/au):

     atom    1 type  1   force =    -0.00003999   -0.00003999    0.00000000
     atom    2 type  1   force =    -0.00005372   -0.00005372    0.00000000
     atom    3 type  2   force =    -0.00000110    0.00004870    0.00000000
     atom    4 type  2   force =     0.00004870   -0.00000110    0.00000000
     atom    5 type  2   force =    -0.00000207   -0.00000207    0.00000000
     atom    6 type  2   force =     0.00004818    0.00004818    0.00000000

     Total force =     0.000136     Total SCF correction =     0.000001


     Computing stress (Cartesian axis) and pressure

          total   stress  (Ry/bohr**3)                   (kbar)     P=    0.02
   0.00000042   0.00000000   0.00000000          0.06      0.00      0.00
   0.00000000   0.00000042   0.00000000          0.00      0.06      0.00
   0.00000000   0.00000000  -0.00000054          0.00      0.00     -0.08


     number of scf cycles    =   8
     number of bfgs steps    =   7

     enthalpy old            =    -447.5904558274 Ry
     enthalpy new            =    -447.5904559059 Ry

     CASE: enthalpy_new < enthalpy_old

     new trust radius        =       0.0002567732 bohr
     new conv_thr            =            1.0E-12 Ry

     new unit-cell volume =    512.18927 a.u.^3 (    75.89862 Ang^3 )
     density =      6.59449 g/cm^3

CELL_PARAMETERS (alat=  9.11000000)
   1.002852441   0.000000000   0.000000000
   0.000000000   1.002852441   0.000000000
   0.000000000   0.000000000   0.673598749

ATOMIC_POSITIONS (crystal)
Sn      -0.000315237  -0.000315237   0.000000000
Sn       0.499683700   0.499683700   0.500000000
O        0.806359352   0.192936488   0.500000000
O        0.192936488   0.806359352   0.500000000
O        0.306379299   0.306379299   0.000000000
O        0.692956398   0.692956398   0.000000000



     Writing output data file SnO2.save
     NEW-OLD atomic charge density approx. for the potential
     extrapolated charge   51.99979, renormalised to   52.00000

     total cpu time spent up to now is     5678.0 secs

     Self-consistent Calculation

     iteration #  1     ecut=    85.00 Ry     beta= 0.70
     Davidson diagonalization with overlap
     ethr =  1.00E-06,  avg # of iterations =  2.0

     Threshold (ethr) on eigenvalues was too large:
     Diagonalizing with lowered threshold

     Davidson diagonalization with overlap
     ethr =  2.08E-10,  avg # of iterations =  3.7

     total cpu time spent up to now is     5825.4 secs

     total energy              =    -447.59045593 Ry
     Harris-Foulkes estimate   =    -447.59092791 Ry
     estimated scf accuracy    <       0.00000002 Ry

     iteration #  2     ecut=    85.00 Ry     beta= 0.70
     Davidson diagonalization with overlap
     ethr =  3.72E-11,  avg # of iterations =  2.0

     total cpu time spent up to now is     5897.8 secs

     total energy              =    -447.59045594 Ry
     Harris-Foulkes estimate   =    -447.59045594 Ry
     estimated scf accuracy    <          4.3E-09 Ry

     iteration #  3     ecut=    85.00 Ry     beta= 0.70
     Davidson diagonalization with overlap
     ethr =  8.32E-12,  avg # of iterations =  2.1

     total cpu time spent up to now is     5966.2 secs

     total energy              =    -447.59045594 Ry
     Harris-Foulkes estimate   =    -447.59045594 Ry
     estimated scf accuracy    <          4.9E-10 Ry

     iteration #  4     ecut=    85.00 Ry     beta= 0.70
     Davidson diagonalization with overlap
     ethr =  9.34E-13,  avg # of iterations =  2.7

     total cpu time spent up to now is     6037.8 secs

     total energy              =    -447.59045594 Ry
     Harris-Foulkes estimate   =    -447.59045594 Ry
     estimated scf accuracy    <          4.2E-11 Ry

     iteration #  5     ecut=    85.00 Ry     beta= 0.70
     Davidson diagonalization with overlap
     ethr =  1.00E-13,  avg # of iterations =  2.7

     total cpu time spent up to now is     6103.9 secs

     total energy              =    -447.59045594 Ry
     Harris-Foulkes estimate   =    -447.59045594 Ry
     estimated scf accuracy    <          2.4E-12 Ry

     iteration #  6     ecut=    85.00 Ry     beta= 0.70
     Davidson diagonalization with overlap
     ethr =  1.00E-13,  avg # of iterations =  1.0

     total cpu time spent up to now is     6155.4 secs

     End of self-consistent calculation

     Number of k-points >= 100: set verbosity='high' to print the bands.

     highest occupied level (ev):     8.9061

!    total energy              =    -447.59045594 Ry
     Harris-Foulkes estimate   =    -447.59045594 Ry
     estimated scf accuracy    <          5.5E-13 Ry

     The total energy is the sum of the following terms:

     one-electron contribution =    -125.60841038 Ry
     hartree contribution      =     101.51649635 Ry
     xc contribution           =    -122.07352115 Ry
     ewald contribution        =    -301.42502076 Ry

     convergence has been achieved in   6 iterations

     Forces acting on atoms (cartesian axes, Ry/au):

     atom    1 type  1   force =    -0.00003698   -0.00003698    0.00000000
     atom    2 type  1   force =    -0.00002831   -0.00002831    0.00000000
     atom    3 type  2   force =     0.00000296    0.00001604    0.00000000
     atom    4 type  2   force =     0.00001604    0.00000296    0.00000000
     atom    5 type  2   force =     0.00001661    0.00001661    0.00000000
     atom    6 type  2   force =     0.00002967    0.00002967    0.00000000

     Total force =     0.000085     Total SCF correction =     0.000003


     Computing stress (Cartesian axis) and pressure

          total   stress  (Ry/bohr**3)                   (kbar)     P=    0.01
   0.00000041  -0.00000000  -0.00000000          0.06     -0.00     -0.00
  -0.00000000   0.00000041   0.00000000         -0.00      0.06      0.00
   0.00000000  -0.00000000  -0.00000052          0.00     -0.00     -0.08


     number of scf cycles    =   9
     number of bfgs steps    =   8

     enthalpy old            =    -447.5904559059 Ry
     enthalpy new            =    -447.5904559379 Ry

     CASE: enthalpy_new < enthalpy_old

     new trust radius        =       0.0001860176 bohr
     new conv_thr            =            1.0E-12 Ry

     new unit-cell volume =    512.19267 a.u.^3 (    75.89912 Ang^3 )
     density =      6.59445 g/cm^3

CELL_PARAMETERS (alat=  9.11000000)
   1.002866284   0.000000000   0.000000000
   0.000000000   1.002866284   0.000000000
   0.000000000   0.000000000   0.673584627

ATOMIC_POSITIONS (crystal)
Sn      -0.000326837  -0.000326837   0.000000000
Sn       0.499670566   0.499670566   0.500000000
O        0.806369144   0.192954340   0.500000000
O        0.192954340   0.806369144   0.500000000
O        0.306373807   0.306373807   0.000000000
O        0.692958980   0.692958980   0.000000000



     Writing output data file SnO2.save
     NEW-OLD atomic charge density approx. for the potential
     extrapolated charge   52.00035, renormalised to   52.00000

     total cpu time spent up to now is     6183.4 secs

     Self-consistent Calculation

     iteration #  1     ecut=    85.00 Ry     beta= 0.70
     Davidson diagonalization with overlap
     ethr =  1.00E-06,  avg # of iterations =  1.6

     Threshold (ethr) on eigenvalues was too large:
     Diagonalizing with lowered threshold

     Davidson diagonalization with overlap
     ethr =  4.75E-10,  avg # of iterations =  3.0

     total cpu time spent up to now is     6323.9 secs

     total energy              =    -447.59045595 Ry
     Harris-Foulkes estimate   =    -447.58969360 Ry
     estimated scf accuracy    <       0.00000001 Ry

     iteration #  2     ecut=    85.00 Ry     beta= 0.70
     Davidson diagonalization with overlap
     ethr =  2.68E-11,  avg # of iterations =  3.0

     total cpu time spent up to now is     6403.1 secs

     total energy              =    -447.59045596 Ry
     Harris-Foulkes estimate   =    -447.59045596 Ry
     estimated scf accuracy    <       0.00000001 Ry

     iteration #  3     ecut=    85.00 Ry     beta= 0.70
     Davidson diagonalization with overlap
     ethr =  1.93E-11,  avg # of iterations =  2.0

     total cpu time spent up to now is     6467.3 secs

     total energy              =    -447.59045596 Ry
     Harris-Foulkes estimate   =    -447.59045596 Ry
     estimated scf accuracy    <          5.1E-10 Ry

     iteration #  4     ecut=    85.00 Ry     beta= 0.70
     Davidson diagonalization with overlap
     ethr =  9.76E-13,  avg # of iterations =  3.0

     total cpu time spent up to now is     6542.6 secs

     total energy              =    -447.59045596 Ry
     Harris-Foulkes estimate   =    -447.59045596 Ry
     estimated scf accuracy    <          1.7E-10 Ry

     iteration #  5     ecut=    85.00 Ry     beta= 0.70
     Davidson diagonalization with overlap
     ethr =  3.25E-13,  avg # of iterations =  3.3

     total cpu time spent up to now is     6612.5 secs

     total energy              =    -447.59045596 Ry
     Harris-Foulkes estimate   =    -447.59045596 Ry
     estimated scf accuracy    <          6.6E-11 Ry

     iteration #  6     ecut=    85.00 Ry     beta= 0.70
     Davidson diagonalization with overlap
     ethr =  1.27E-13,  avg # of iterations =  3.0

     total cpu time spent up to now is     6678.1 secs

     total energy              =    -447.59045596 Ry
     Harris-Foulkes estimate   =    -447.59045596 Ry
     estimated scf accuracy    <          1.8E-12 Ry

     iteration #  7     ecut=    85.00 Ry     beta= 0.70
     Davidson diagonalization with overlap
     ethr =  1.00E-13,  avg # of iterations =  1.0

     total cpu time spent up to now is     6729.4 secs

     End of self-consistent calculation

     Number of k-points >= 100: set verbosity='high' to print the bands.

     highest occupied level (ev):     8.9060

!    total energy              =    -447.59045596 Ry
     Harris-Foulkes estimate   =    -447.59045596 Ry
     estimated scf accuracy    <          2.0E-13 Ry

     The total energy is the sum of the following terms:

     one-electron contribution =    -125.61056785 Ry
     hartree contribution      =     101.51731508 Ry
     xc contribution           =    -122.07350438 Ry
     ewald contribution        =    -301.42369881 Ry

     convergence has been achieved in   7 iterations

     Forces acting on atoms (cartesian axes, Ry/au):

     atom    1 type  1   force =    -0.00001387   -0.00001387    0.00000000
     atom    2 type  1   force =    -0.00000014   -0.00000014    0.00000000
     atom    3 type  2   force =     0.00000797   -0.00000684    0.00000000
     atom    4 type  2   force =    -0.00000684    0.00000797   -0.00000000
     atom    5 type  2   force =     0.00001377    0.00001377    0.00000000
     atom    6 type  2   force =    -0.00000090   -0.00000090    0.00000000

     Total force =     0.000031     Total SCF correction =     0.000003


     Computing stress (Cartesian axis) and pressure

          total   stress  (Ry/bohr**3)                   (kbar)     P=    0.01
   0.00000023   0.00000000   0.00000000          0.03      0.00      0.00
   0.00000000   0.00000023   0.00000000          0.00      0.03      0.00
   0.00000000   0.00000000  -0.00000031          0.00      0.00     -0.05


     number of scf cycles    =  10
     number of bfgs steps    =   9

     enthalpy old            =    -447.5904559379 Ry
     enthalpy new            =    -447.5904559573 Ry

     CASE: enthalpy_new < enthalpy_old

     small trust_radius: resetting bfgs history

     new trust radius        =       0.0000350877 bohr
     new conv_thr            =            1.0E-12 Ry

     new unit-cell volume =    512.19454 a.u.^3 (    75.89940 Ang^3 )
     density =      6.59443 g/cm^3

CELL_PARAMETERS (alat=  9.11000000)
   1.002872000   0.000000000   0.000000000
   0.000000000   1.002872000   0.000000000
   0.000000000   0.000000000   0.673579405

ATOMIC_POSITIONS (crystal)
Sn      -0.000328355  -0.000328355   0.000000000
Sn       0.499670551   0.499670551   0.500000000
O        0.806370016   0.192953592   0.500000000
O        0.192953592   0.806370016   0.500000000
O        0.306375314   0.306375314   0.000000000
O        0.692958882   0.692958882   0.000000000



     Writing output data file SnO2.save
     NEW-OLD atomic charge density approx. for the potential
     extrapolated charge   52.00019, renormalised to   52.00000

     total cpu time spent up to now is     6757.6 secs

     Self-consistent Calculation

     iteration #  1     ecut=    85.00 Ry     beta= 0.70
     Davidson diagonalization with overlap
     ethr =  1.00E-06,  avg # of iterations =  1.0

     Threshold (ethr) on eigenvalues was too large:
     Diagonalizing with lowered threshold

     Davidson diagonalization with overlap
     ethr =  8.36E-12,  avg # of iterations =  3.5

     total cpu time spent up to now is     6899.8 secs

     total energy              =    -447.59045596 Ry
     Harris-Foulkes estimate   =    -447.59003723 Ry
     estimated scf accuracy    <          1.0E-09 Ry

     iteration #  2     ecut=    85.00 Ry     beta= 0.70
     Davidson diagonalization with overlap
     ethr =  2.00E-12,  avg # of iterations =  4.0

     total cpu time spent up to now is     6991.0 secs

     total energy              =    -447.59045596 Ry
     Harris-Foulkes estimate   =    -447.59045596 Ry
     estimated scf accuracy    <          2.8E-09 Ry

     iteration #  3     ecut=    85.00 Ry     beta= 0.70
     Davidson diagonalization with overlap
     ethr =  2.00E-12,  avg # of iterations =  2.0

     total cpu time spent up to now is     7055.8 secs

     total energy              =    -447.59045596 Ry
     Harris-Foulkes estimate   =    -447.59045596 Ry
     estimated scf accuracy    <          3.8E-10 Ry

     iteration #  4     ecut=    85.00 Ry     beta= 0.70
     Davidson diagonalization with overlap
     ethr =  7.33E-13,  avg # of iterations =  1.0

     total cpu time spent up to now is     7107.6 secs

     total energy              =    -447.59045596 Ry
     Harris-Foulkes estimate   =    -447.59045596 Ry
     estimated scf accuracy    <          1.7E-10 Ry

     iteration #  5     ecut=    85.00 Ry     beta= 0.70
     Davidson diagonalization with overlap
     ethr =  3.36E-13,  avg # of iterations =  2.0

     total cpu time spent up to now is     7179.9 secs

     total energy              =    -447.59045596 Ry
     Harris-Foulkes estimate   =    -447.59045596 Ry
     estimated scf accuracy    <          1.8E-12 Ry

     iteration #  6     ecut=    85.00 Ry     beta= 0.70
     Davidson diagonalization with overlap
     ethr =  1.00E-13,  avg # of iterations =  1.0

     total cpu time spent up to now is     7231.3 secs

     End of self-consistent calculation

     Number of k-points >= 100: set verbosity='high' to print the bands.

     highest occupied level (ev):     8.9059

!    total energy              =    -447.59045596 Ry
     Harris-Foulkes estimate   =    -447.59045596 Ry
     estimated scf accuracy    <          1.5E-13 Ry

     The total energy is the sum of the following terms:

     one-electron contribution =    -125.61209674 Ry
     hartree contribution      =     101.51795779 Ry
     xc contribution           =    -122.07350157 Ry
     ewald contribution        =    -301.42281544 Ry

     convergence has been achieved in   6 iterations

     Forces acting on atoms (cartesian axes, Ry/au):

     atom    1 type  1   force =    -0.00000719   -0.00000719    0.00000000
     atom    2 type  1   force =    -0.00000042   -0.00000042    0.00000000
     atom    3 type  2   force =     0.00000459   -0.00000311    0.00000000
     atom    4 type  2   force =    -0.00000311    0.00000459    0.00000000
     atom    5 type  2   force =     0.00000691    0.00000691    0.00000000
     atom    6 type  2   force =    -0.00000078   -0.00000078    0.00000000

     Total force =     0.000016     Total SCF correction =     0.000000


     Computing stress (Cartesian axis) and pressure

          total   stress  (Ry/bohr**3)                   (kbar)     P=    0.01
   0.00000016  -0.00000000   0.00000000          0.02     -0.00      0.00
  -0.00000000   0.00000016   0.00000000         -0.00      0.02      0.00
   0.00000000   0.00000000  -0.00000020          0.00      0.00     -0.03


     number of scf cycles    =  11
     number of bfgs steps    =  10

     enthalpy old            =    -447.5904559573 Ry
     enthalpy new            =    -447.5904559602 Ry

     CASE: enthalpy_new < enthalpy_old

     Message from routine bfgs:
     history already reset at previous step: stopping
     small trust_radius: resetting bfgs history

     new trust radius        =       0.0000221853 bohr
     new conv_thr            =            2.9E-13 Ry

     new unit-cell volume =    512.19623 a.u.^3 (    75.89965 Ang^3 )
     density =      6.59440 g/cm^3

CELL_PARAMETERS (alat=  9.11000000)
   1.002876112   0.000000000   0.000000000
   0.000000000   1.002876112   0.000000000
   0.000000000   0.000000000   0.673576104

ATOMIC_POSITIONS (crystal)
Sn      -0.000329142  -0.000329142   0.000000000
Sn       0.499670505   0.499670505   0.500000000
O        0.806370519   0.192953251   0.500000000
O        0.192953251   0.806370519   0.500000000
O        0.306376071   0.306376071   0.000000000
O        0.692958796   0.692958796   0.000000000



     Writing output data file SnO2.save
     NEW-OLD atomic charge density approx. for the potential
     extrapolated charge   52.00017, renormalised to   52.00000

     total cpu time spent up to now is     7259.2 secs

     Self-consistent Calculation

     iteration #  1     ecut=    85.00 Ry     beta= 0.70
     Davidson diagonalization with overlap
     ethr =  1.00E-06,  avg # of iterations =  1.0

     Threshold (ethr) on eigenvalues was too large:
     Diagonalizing with lowered threshold

     Davidson diagonalization with overlap
     ethr =  3.36E-12,  avg # of iterations =  3.4

     total cpu time spent up to now is     7398.9 secs

     total energy              =    -447.59045596 Ry
     Harris-Foulkes estimate   =    -447.59007732 Ry
     estimated scf accuracy    <          8.3E-10 Ry

     iteration #  2     ecut=    85.00 Ry     beta= 0.70
     Davidson diagonalization with overlap
     ethr =  1.59E-12,  avg # of iterations =  4.0

     total cpu time spent up to now is     7491.1 secs

     total energy              =    -447.59045596 Ry
     Harris-Foulkes estimate   =    -447.59045596 Ry
     estimated scf accuracy    <          2.3E-09 Ry

     iteration #  3     ecut=    85.00 Ry     beta= 0.70
     Davidson diagonalization with overlap
     ethr =  1.59E-12,  avg # of iterations =  2.0

     total cpu time spent up to now is     7556.2 secs

     total energy              =    -447.59045596 Ry
     Harris-Foulkes estimate   =    -447.59045596 Ry
     estimated scf accuracy    <          3.2E-10 Ry

     iteration #  4     ecut=    85.00 Ry     beta= 0.70
     Davidson diagonalization with overlap
     ethr =  6.16E-13,  avg # of iterations =  1.0

     total cpu time spent up to now is     7608.3 secs

     total energy              =    -447.59045596 Ry
     Harris-Foulkes estimate   =    -447.59045596 Ry
     estimated scf accuracy    <          1.6E-10 Ry

     iteration #  5     ecut=    85.00 Ry     beta= 0.70
     Davidson diagonalization with overlap
     ethr =  3.08E-13,  avg # of iterations =  2.0

     total cpu time spent up to now is     7680.2 secs

     End of self-consistent calculation

     Number of k-points >= 100: set verbosity='high' to print the bands.

     highest occupied level (ev):     8.9058

!    total energy              =    -447.59045596 Ry
     Harris-Foulkes estimate   =    -447.59045596 Ry
     estimated scf accuracy    <          2.1E-13 Ry

     The total energy is the sum of the following terms:

     one-electron contribution =    -125.61322361 Ry
     hartree contribution      =     101.51841560 Ry
     xc contribution           =    -122.07349660 Ry
     ewald contribution        =    -301.42215136 Ry

     convergence has been achieved in   5 iterations

     Forces acting on atoms (cartesian axes, Ry/au):

     atom    1 type  1   force =    -0.00000377   -0.00000377    0.00000000
     atom    2 type  1   force =    -0.00000087   -0.00000087    0.00000000
     atom    3 type  2   force =     0.00000275   -0.00000106    0.00000000
     atom    4 type  2   force =    -0.00000106    0.00000275    0.00000000
     atom    5 type  2   force =     0.00000336    0.00000336    0.00000000
     atom    6 type  2   force =    -0.00000041   -0.00000041    0.00000000

     Total force =     0.000008     Total SCF correction =     0.000001
     SCF correction compared to forces is large: reduce conv_thr to get better values


     Computing stress (Cartesian axis) and pressure

          total   stress  (Ry/bohr**3)                   (kbar)     P=    0.01
   0.00000012  -0.00000000   0.00000000          0.02     -0.00      0.00
  -0.00000000   0.00000012   0.00000000         -0.00      0.02      0.00
   0.00000000   0.00000000  -0.00000012          0.00      0.00     -0.02


     bfgs converged in  12 scf cycles and  11 bfgs steps
     (criteria: energy <  1.0E-10 Ry, force <  1.0E-09Ry/Bohr, cell <  5.0E-01kbar)

     End of BFGS Geometry Optimization

     Final enthalpy =    -447.5904559614 Ry
Begin final coordinates
     new unit-cell volume =    512.19623 a.u.^3 (    75.89965 Ang^3 )
     density =      6.59440 g/cm^3

CELL_PARAMETERS (alat=  9.11000000)
   1.002876112   0.000000000   0.000000000
   0.000000000   1.002876112   0.000000000
   0.000000000   0.000000000   0.673576104

ATOMIC_POSITIONS (crystal)
Sn      -0.000329142  -0.000329142   0.000000000
Sn       0.499670505   0.499670505   0.500000000
O        0.806370519   0.192953251   0.500000000
O        0.192953251   0.806370519   0.500000000
O        0.306376071   0.306376071   0.000000000
O        0.692958796   0.692958796   0.000000000
End final coordinates



     A final scf calculation at the relaxed structure.
     The G-vectors are recalculated for the final unit cell
     Results may differ from those at the preceding step.
 
     Parallelization info
     --------------------
     sticks:   dense  smooth     PW     G-vecs:    dense   smooth      PW
     Min        1120    1120    332                27054    27054    4241
     Max        1121    1121    333                27055    27055    4242
     Sum        2241    2241    665                54109    54109    8483
 


     bravais-lattice index     =            6
     lattice parameter (alat)  =       9.1100  a.u.
     unit-cell volume          =     512.1962 (a.u.)^3
     number of atoms/cell      =            6
     number of atomic types    =            2
     number of electrons       =        52.00
     number of Kohn-Sham states=           26
     kinetic-energy cutoff     =      85.0000  Ry
     charge density cutoff     =     340.0000  Ry
     convergence threshold     =      2.9E-13
     mixing beta               =       0.7000
     number of iterations used =            8  plain     mixing
     Exchange-correlation      = PBE ( 1  4  3  4 0 0)

     celldm(1)=   9.110000  celldm(2)=   0.000000  celldm(3)=   0.670000
     celldm(4)=   0.000000  celldm(5)=   0.000000  celldm(6)=   0.000000

     crystal axes: (cart. coord. in units of alat)
               a(1) = (   1.002876   0.000000   0.000000 )  
               a(2) = (   0.000000   1.002876   0.000000 )  
               a(3) = (   0.000000   0.000000   0.673576 )  

     reciprocal axes: (cart. coord. in units 2 pi/alat)
               b(1) = (  0.997132  0.000000  0.000000 )  
               b(2) = (  0.000000  0.997132  0.000000 )  
               b(3) = (  0.000000  0.000000  1.484613 )  


     PseudoPot. # 1 for Sn read from file:
     ../../Pseudo_potentials/Sn_PBE.upf
     MD5 check sum: 78e6386ae56e929f0568ae8bf606a80c
     Pseudo is Norm-conserving + core correction, Zval = 14.0
     Generated using ONCVPSP code by D. R. Hamann
     Using radial grid of 1628 points,  6 beta functions with: 
                l(1) =   0
                l(2) =   0
                l(3) =   1
                l(4) =   1
                l(5) =   2
                l(6) =   2

     PseudoPot. # 2 for O  read from file:
     ../../Pseudo_potentials/O_PBE.upf
     MD5 check sum: 3e3f909f7470e8921608ab6b1f57bbae
     Pseudo is Norm-conserving + core correction, Zval =  6.0
     Generated using ONCVPSP code by D. R. Hamann
     Using radial grid of  936 points,  5 beta functions with: 
                l(1) =   0
                l(2) =   0
                l(3) =   1
                l(4) =   1
                l(5) =   2

     atomic species   valence    mass     pseudopotential
        Sn            14.00   118.71000     Sn( 1.00)
        O              6.00    15.99900     O ( 1.00)

      4 Sym. Ops. (no inversion) found



   Cartesian axes

     site n.     atom                  positions (alat units)
         1           Sn  tau(   1) = (  -0.0003301  -0.0003301   0.0000000  )
         2           Sn  tau(   2) = (   0.5011076   0.5011076   0.3367881  )
         3           O   tau(   3) = (   0.8086897   0.1935082   0.3367881  )
         4           O   tau(   4) = (   0.1935082   0.8086897   0.3367881  )
         5           O   tau(   5) = (   0.3072572   0.3072572   0.0000000  )
         6           O   tau(   6) = (   0.6949518   0.6949518   0.0000000  )

     number of k points=   301

     Number of k-points >= 100: set verbosity='high' to print them.

     Dense  grid:    54109 G-vectors     FFT dimensions: (  54,  54,  40)

     Estimated max dynamical RAM per process >     446.95 MB

     Estimated total dynamical RAM >     893.89 MB

     Initial potential from superposition of free atoms

     starting charge   51.99690, renormalised to   52.00000
     Starting wfc are   34 randomized atomic wfcs

     Writing output data file SnO2.save

     total cpu time spent up to now is     7734.2 secs

     Self-consistent Calculation

     iteration #  1     ecut=    85.00 Ry     beta= 0.70
     Davidson diagonalization with overlap
     ethr =  1.00E-06,  avg # of iterations =  5.6

     total cpu time spent up to now is     7871.5 secs

     total energy              =    -446.90510974 Ry
     Harris-Foulkes estimate   =    -448.04554433 Ry
     estimated scf accuracy    <       1.54997432 Ry

     iteration #  2     ecut=    85.00 Ry     beta= 0.70
     Davidson diagonalization with overlap
     ethr =  2.98E-03,  avg # of iterations =  3.1

     total cpu time spent up to now is     7948.2 secs

     total energy              =    -447.27503382 Ry
     Harris-Foulkes estimate   =    -448.03667664 Ry
     estimated scf accuracy    <       1.56254139 Ry

     iteration #  3     ecut=    85.00 Ry     beta= 0.70
     Davidson diagonalization with overlap
     ethr =  2.98E-03,  avg # of iterations =  3.0

     total cpu time spent up to now is     8021.4 secs

     total energy              =    -447.58676229 Ry
     Harris-Foulkes estimate   =    -447.58769411 Ry
     estimated scf accuracy    <       0.00622567 Ry

     iteration #  4     ecut=    85.00 Ry     beta= 0.70
     Davidson diagonalization with overlap
     ethr =  1.20E-05,  avg # of iterations =  2.9

     total cpu time spent up to now is     8102.6 secs

     total energy              =    -447.58999664 Ry
     Harris-Foulkes estimate   =    -447.59019195 Ry
     estimated scf accuracy    <       0.00041777 Ry

     iteration #  5     ecut=    85.00 Ry     beta= 0.70
     Davidson diagonalization with overlap
     ethr =  8.03E-07,  avg # of iterations =  3.0

     total cpu time spent up to now is     8169.3 secs

     total energy              =    -447.59002621 Ry
     Harris-Foulkes estimate   =    -447.59003810 Ry
     estimated scf accuracy    <       0.00003465 Ry

     iteration #  6     ecut=    85.00 Ry     beta= 0.70
     Davidson diagonalization with overlap
     ethr =  6.66E-08,  avg # of iterations =  2.7

     total cpu time spent up to now is     8249.3 secs

     total energy              =    -447.59040804 Ry
     Harris-Foulkes estimate   =    -447.59040790 Ry
     estimated scf accuracy    <       0.00000190 Ry

     iteration #  7     ecut=    85.00 Ry     beta= 0.70
     Davidson diagonalization with overlap
     ethr =  3.65E-09,  avg # of iterations =  3.0

     total cpu time spent up to now is     8322.1 secs

     total energy              =    -447.59040821 Ry
     Harris-Foulkes estimate   =    -447.59040835 Ry
     estimated scf accuracy    <       0.00000034 Ry

     iteration #  8     ecut=    85.00 Ry     beta= 0.70
     Davidson diagonalization with overlap
     ethr =  6.55E-10,  avg # of iterations =  2.0

     total cpu time spent up to now is     8381.5 secs

     total energy              =    -447.59040823 Ry
     Harris-Foulkes estimate   =    -447.59040823 Ry
     estimated scf accuracy    <          3.0E-09 Ry

     iteration #  9     ecut=    85.00 Ry     beta= 0.70
     Davidson diagonalization with overlap
     ethr =  5.85E-12,  avg # of iterations =  4.1

     total cpu time spent up to now is     8475.6 secs

     total energy              =    -447.59045910 Ry
     Harris-Foulkes estimate   =    -447.59045911 Ry
     estimated scf accuracy    <       0.00000010 Ry

     iteration # 10     ecut=    85.00 Ry     beta= 0.70
     Davidson diagonalization with overlap
     ethr =  5.85E-12,  avg # of iterations =  1.0

     total cpu time spent up to now is     8531.9 secs

     total energy              =    -447.59045907 Ry
     Harris-Foulkes estimate   =    -447.59045910 Ry
     estimated scf accuracy    <       0.00000009 Ry

     iteration # 11     ecut=    85.00 Ry     beta= 0.70
     Davidson diagonalization with overlap
     ethr =  5.85E-12,  avg # of iterations =  4.0

     total cpu time spent up to now is     8626.1 secs

     total energy              =    -447.59045908 Ry
     Harris-Foulkes estimate   =    -447.59045908 Ry
     estimated scf accuracy    <       0.00000001 Ry

     iteration # 12     ecut=    85.00 Ry     beta= 0.70
     Davidson diagonalization with overlap
     ethr =  5.85E-12,  avg # of iterations =  2.9

     total cpu time spent up to now is     8699.0 secs

     total energy              =    -447.59045908 Ry
     Harris-Foulkes estimate   =    -447.59045908 Ry
     estimated scf accuracy    <          3.3E-09 Ry

     iteration # 13     ecut=    85.00 Ry     beta= 0.70
     Davidson diagonalization with overlap
     ethr =  5.85E-12,  avg # of iterations =  1.0

     total cpu time spent up to now is     8755.2 secs

     total energy              =    -447.59045908 Ry
     Harris-Foulkes estimate   =    -447.59045908 Ry
     estimated scf accuracy    <          2.8E-09 Ry

     iteration # 14     ecut=    85.00 Ry     beta= 0.70
     Davidson diagonalization with overlap
     ethr =  5.45E-12,  avg # of iterations =  1.5

     total cpu time spent up to now is     8812.4 secs

     total energy              =    -447.59045908 Ry
     Harris-Foulkes estimate   =    -447.59045908 Ry
     estimated scf accuracy    <          6.7E-10 Ry

     iteration # 15     ecut=    85.00 Ry     beta= 0.70
     Davidson diagonalization with overlap
     ethr =  1.28E-12,  avg # of iterations =  2.9

     total cpu time spent up to now is     8885.5 secs

     total energy              =    -447.59045908 Ry
     Harris-Foulkes estimate   =    -447.59045908 Ry
     estimated scf accuracy    <          8.4E-12 Ry

     iteration # 16     ecut=    85.00 Ry     beta= 0.70
     Davidson diagonalization with overlap
     ethr =  1.00E-13,  avg # of iterations =  1.4

     total cpu time spent up to now is     8942.5 secs

     total energy              =    -447.59045908 Ry
     Harris-Foulkes estimate   =    -447.59045908 Ry
     estimated scf accuracy    <          4.3E-12 Ry

     iteration # 17     ecut=    85.00 Ry     beta= 0.70
     Davidson diagonalization with overlap
     ethr =  1.00E-13,  avg # of iterations =  1.0

     total cpu time spent up to now is     8998.7 secs

     total energy              =    -447.59045908 Ry
     Harris-Foulkes estimate   =    -447.59045908 Ry
     estimated scf accuracy    <          1.5E-12 Ry

     iteration # 18     ecut=    85.00 Ry     beta= 0.70
     Davidson diagonalization with overlap
     ethr =  1.00E-13,  avg # of iterations =  1.0

     total cpu time spent up to now is     9055.0 secs

     End of self-consistent calculation

     Number of k-points >= 100: set verbosity='high' to print the bands.

     highest occupied level (ev):     8.9059

!    total energy              =    -447.59045908 Ry
     Harris-Foulkes estimate   =    -447.59045908 Ry
     estimated scf accuracy    <          5.6E-14 Ry

     The total energy is the sum of the following terms:

     one-electron contribution =    -125.61324413 Ry
     hartree contribution      =     101.51845364 Ry
     xc contribution           =    -122.07351724 Ry
     ewald contribution        =    -301.42215136 Ry

     convergence has been achieved in  18 iterations

     Forces acting on atoms (cartesian axes, Ry/au):

     atom    1 type  1   force =    -0.00000387   -0.00000387    0.00000000
     atom    2 type  1   force =    -0.00000072   -0.00000072    0.00000000
     atom    3 type  2   force =     0.00000166    0.00000004    0.00000000
     atom    4 type  2   force =     0.00000004    0.00000166    0.00000000
     atom    5 type  2   force =     0.00000220    0.00000220    0.00000000
     atom    6 type  2   force =     0.00000068    0.00000068    0.00000000

     Total force =     0.000007     Total SCF correction =     0.000000


     Computing stress (Cartesian axis) and pressure

          total   stress  (Ry/bohr**3)                   (kbar)     P=    0.07
   0.00000059  -0.00000000  -0.00000000          0.09     -0.00     -0.00
  -0.00000000   0.00000059   0.00000000         -0.00      0.09      0.00
  -0.00000000   0.00000000   0.00000033         -0.00      0.00      0.05


     Writing output data file SnO2.save
 
     init_run     :     53.53s CPU     54.24s WALL (       2 calls)
     electrons    :   8566.76s CPU   8666.19s WALL (      13 calls)
     update_pot   :     19.84s CPU     19.87s WALL (      11 calls)
     forces       :     84.80s CPU     85.40s WALL (      13 calls)
     stress       :    250.50s CPU    250.87s WALL (      13 calls)

     Called by init_run:
     wfcinit      :     51.73s CPU     52.39s WALL (       2 calls)
     potinit      :      0.65s CPU      0.66s WALL (       2 calls)
     hinit0       :      1.11s CPU      1.14s WALL (       2 calls)

     Called by electrons:
     c_bands      :   7547.39s CPU   7639.46s WALL (     126 calls)
     sum_band     :   1015.31s CPU   1022.01s WALL (     126 calls)
     v_of_rho     :      3.64s CPU      3.67s WALL (     129 calls)
     mix_rho      :      0.66s CPU      0.73s WALL (     126 calls)

     Called by c_bands:
     init_us_2    :    163.13s CPU    171.02s WALL (   84280 calls)
     cegterg      :   6759.91s CPU   6846.45s WALL (   37926 calls)

     Called by sum_band:

     Called by *egterg:
     h_psi        :   5708.62s CPU   5771.82s WALL (  134363 calls)
     g_psi        :     63.21s CPU     63.31s WALL (   95835 calls)
     cdiaghg      :    175.81s CPU    169.28s WALL (  127440 calls)

     Called by h_psi:
     h_psi:pot    :   5677.95s CPU   5735.00s WALL (  134363 calls)
     h_psi:calbec :    403.65s CPU    381.37s WALL (  134363 calls)
     vloc_psi     :   4949.75s CPU   4970.87s WALL (  134363 calls)
     add_vuspsi   :    324.34s CPU    382.34s WALL (  134363 calls)

     General routines
     calbec       :    477.19s CPU    445.45s WALL (  153928 calls)
     fft          :      2.19s CPU      2.34s WALL (    1636 calls)
     ffts         :      0.19s CPU      0.18s WALL (     126 calls)
     fftw         :   5609.06s CPU   5459.44s WALL ( 6390316 calls)
 
     Parallel routines
     fft_scatt_xy :    271.28s CPU    545.03s WALL ( 6392078 calls)
     fft_scatt_yz :   2750.30s CPU    638.07s WALL ( 6392078 calls)
 
     PWSCF        :     2h29m CPU        2h31m WALL

 
   This run was terminated on:   7:27:16  11Apr2018            

=------------------------------------------------------------------------------=
   JOB DONE.
=------------------------------------------------------------------------------=
