
     Program PWSCF v.6.2.2 starts on  9Apr2018 at 12:42: 8 

     This program is part of the open-source Quantum ESPRESSO suite
     for quantum simulation of materials; please cite
         "P. Giannozzi et al., J. Phys.:Condens. Matter 21 395502 (2009);
         "P. Giannozzi et al., J. Phys.:Condens. Matter 29 465901 (2017);
          URL http://www.quantum-espresso.org", 
     in publications or presentations arising from this work. More details at
     http://www.quantum-espresso.org/quote

     Parallel version (MPI), running on     2 processors

     MPI processes distributed on     1 nodes
     R & G space division:  proc/nbgrp/npool/nimage =       2
     Reading input from Conv_acell-ecut.in

     Current dimensions of program PWSCF are:
     Max number of different atomic species (ntypx) = 10
     Max number of k-points (npk) =  40000
     Max angular momentum in pseudopotentials (lmaxx) =  3

     Subspace diagonalization in iterative solution of the eigenvalue problem:
     a serial algorithm will be used

 
     Parallelization info
     --------------------
     sticks:   dense  smooth     PW     G-vecs:    dense   smooth      PW
     Min         600     600    178                10337    10337    1732
     Max         601     601    179                10338    10338    1735
     Sum        1201    1201    357                20675    20675    3467
 


     bravais-lattice index     =            6
     lattice parameter (alat)  =       9.1100  a.u.
     unit-cell volume          =     506.5589 (a.u.)^3
     number of atoms/cell      =            6
     number of atomic types    =            2
     number of electrons       =        52.00
     number of Kohn-Sham states=           26
     kinetic-energy cutoff     =      45.0000  Ry
     charge density cutoff     =     180.0000  Ry
     convergence threshold     =      1.0E-12
     mixing beta               =       0.7000
     number of iterations used =            8  plain     mixing
     Exchange-correlation      = PBE ( 1  4  3  4 0 0)
     nstep                     =           50


     celldm(1)=   9.110000  celldm(2)=   0.000000  celldm(3)=   0.670000
     celldm(4)=   0.000000  celldm(5)=   0.000000  celldm(6)=   0.000000

     crystal axes: (cart. coord. in units of alat)
               a(1) = (   1.000000   0.000000   0.000000 )  
               a(2) = (   0.000000   1.000000   0.000000 )  
               a(3) = (   0.000000   0.000000   0.670000 )  

     reciprocal axes: (cart. coord. in units 2 pi/alat)
               b(1) = (  1.000000  0.000000  0.000000 )  
               b(2) = (  0.000000  1.000000  0.000000 )  
               b(3) = (  0.000000  0.000000  1.492537 )  


     PseudoPot. # 1 for Sn read from file:
     ../../Pseudo_potentials/Sn_PBE.upf
     MD5 check sum: 78e6386ae56e929f0568ae8bf606a80c
     Pseudo is Norm-conserving + core correction, Zval = 14.0
     Generated using ONCVPSP code by D. R. Hamann
     Using radial grid of 1628 points,  6 beta functions with: 
                l(1) =   0
                l(2) =   0
                l(3) =   1
                l(4) =   1
                l(5) =   2
                l(6) =   2

     PseudoPot. # 2 for O  read from file:
     ../../Pseudo_potentials/O_PBE.upf
     MD5 check sum: 3e3f909f7470e8921608ab6b1f57bbae
     Pseudo is Norm-conserving + core correction, Zval =  6.0
     Generated using ONCVPSP code by D. R. Hamann
     Using radial grid of  936 points,  5 beta functions with: 
                l(1) =   0
                l(2) =   0
                l(3) =   1
                l(4) =   1
                l(5) =   2

     atomic species   valence    mass     pseudopotential
        Sn            14.00   118.71000     Sn( 1.00)
        O              6.00    15.99900     O ( 1.00)

      4 Sym. Ops. (no inversion) found



   Cartesian axes

     site n.     atom                  positions (alat units)
         1           Sn  tau(   1) = (   0.0000000   0.0000000   0.0000000  )
         2           Sn  tau(   2) = (   0.5000000   0.5000000   0.3350000  )
         3           O   tau(   3) = (   0.8060000   0.1930000   0.3350000  )
         4           O   tau(   4) = (   0.1930000   0.8060000   0.3350000  )
         5           O   tau(   5) = (   0.3060000   0.3060000   0.0000000  )
         6           O   tau(   6) = (   0.6930000   0.6930000   0.0000000  )

     number of k points=   301

     Number of k-points >= 100: set verbosity='high' to print them.

     Dense  grid:    20675 G-vectors     FFT dimensions: (  40,  40,  27)

     Estimated max dynamical RAM per process >     173.44 MB

     Estimated total dynamical RAM >     346.87 MB

     Check: negative/imaginary core charge=   -0.000283    0.000000

     Initial potential from superposition of free atoms

     starting charge   51.99690, renormalised to   52.00000
     Starting wfc are   34 randomized atomic wfcs

     total cpu time spent up to now is       17.9 secs

     Self-consistent Calculation

     iteration #  1     ecut=    45.00 Ry     beta= 0.70
     Davidson diagonalization with overlap
     ethr =  1.00E-02,  avg # of iterations =  2.0

     total cpu time spent up to now is       56.4 secs

     total energy              =    -446.14233077 Ry
     Harris-Foulkes estimate   =    -447.07285355 Ry
     estimated scf accuracy    <       1.30866584 Ry

     iteration #  2     ecut=    45.00 Ry     beta= 0.70
     Davidson diagonalization with overlap
     ethr =  2.52E-03,  avg # of iterations =  3.0

     total cpu time spent up to now is      102.5 secs

     total energy              =    -446.46519622 Ry
     Harris-Foulkes estimate   =    -447.04892097 Ry
     estimated scf accuracy    <       1.17330369 Ry

     iteration #  3     ecut=    45.00 Ry     beta= 0.70
     Davidson diagonalization with overlap
     ethr =  2.26E-03,  avg # of iterations =  3.0

     total cpu time spent up to now is      147.4 secs

     total energy              =    -446.70486409 Ry
     Harris-Foulkes estimate   =    -446.70555868 Ry
     estimated scf accuracy    <       0.00649116 Ry

     iteration #  4     ecut=    45.00 Ry     beta= 0.70
     Davidson diagonalization with overlap
     ethr =  1.25E-05,  avg # of iterations =  2.8

     total cpu time spent up to now is      190.0 secs

     total energy              =    -446.70676092 Ry
     Harris-Foulkes estimate   =    -446.70682238 Ry
     estimated scf accuracy    <       0.00015597 Ry

     iteration #  5     ecut=    45.00 Ry     beta= 0.70
     Davidson diagonalization with overlap
     ethr =  3.00E-07,  avg # of iterations =  3.0

     total cpu time spent up to now is      234.5 secs

     total energy              =    -446.70680759 Ry
     Harris-Foulkes estimate   =    -446.70680717 Ry
     estimated scf accuracy    <       0.00000581 Ry

     iteration #  6     ecut=    45.00 Ry     beta= 0.70
     Davidson diagonalization with overlap
     ethr =  1.12E-08,  avg # of iterations =  3.6

     total cpu time spent up to now is      287.8 secs

     total energy              =    -446.70685716 Ry
     Harris-Foulkes estimate   =    -446.70685955 Ry
     estimated scf accuracy    <       0.00000603 Ry

     iteration #  7     ecut=    45.00 Ry     beta= 0.70
     Davidson diagonalization with overlap
     ethr =  1.12E-08,  avg # of iterations =  3.2

     total cpu time spent up to now is      332.1 secs

     total energy              =    -446.70685850 Ry
     Harris-Foulkes estimate   =    -446.70685867 Ry
     estimated scf accuracy    <       0.00000048 Ry

     iteration #  8     ecut=    45.00 Ry     beta= 0.70
     Davidson diagonalization with overlap
     ethr =  9.28E-10,  avg # of iterations =  2.7

     total cpu time spent up to now is      373.3 secs

     total energy              =    -446.70685858 Ry
     Harris-Foulkes estimate   =    -446.70685858 Ry
     estimated scf accuracy    <       0.00000002 Ry

     iteration #  9     ecut=    45.00 Ry     beta= 0.70
     Davidson diagonalization with overlap
     ethr =  3.40E-11,  avg # of iterations =  3.1

     total cpu time spent up to now is      426.0 secs

     total energy              =    -446.70685858 Ry
     Harris-Foulkes estimate   =    -446.70685859 Ry
     estimated scf accuracy    <       0.00000001 Ry

     iteration # 10     ecut=    45.00 Ry     beta= 0.70
     Davidson diagonalization with overlap
     ethr =  2.46E-11,  avg # of iterations =  3.0

     total cpu time spent up to now is      466.8 secs

     total energy              =    -446.70685858 Ry
     Harris-Foulkes estimate   =    -446.70685858 Ry
     estimated scf accuracy    <          1.5E-09 Ry

     iteration # 11     ecut=    45.00 Ry     beta= 0.70
     Davidson diagonalization with overlap
     ethr =  2.79E-12,  avg # of iterations =  2.7

     total cpu time spent up to now is      512.2 secs

     total energy              =    -446.70685858 Ry
     Harris-Foulkes estimate   =    -446.70685858 Ry
     estimated scf accuracy    <          1.9E-11 Ry

     iteration # 12     ecut=    45.00 Ry     beta= 0.70
     Davidson diagonalization with overlap
     ethr =  1.00E-13,  avg # of iterations =  2.6

     total cpu time spent up to now is      554.8 secs

     total energy              =    -446.70685858 Ry
     Harris-Foulkes estimate   =    -446.70685858 Ry
     estimated scf accuracy    <          1.8E-12 Ry

     iteration # 13     ecut=    45.00 Ry     beta= 0.70
     Davidson diagonalization with overlap
     ethr =  1.00E-13,  avg # of iterations =  1.0

     total cpu time spent up to now is      587.4 secs

     End of self-consistent calculation

     Number of k-points >= 100: set verbosity='high' to print the bands.

     highest occupied level (ev):     9.1362

!    total energy              =    -446.70685858 Ry
     Harris-Foulkes estimate   =    -446.70685858 Ry
     estimated scf accuracy    <          2.9E-13 Ry

     The total energy is the sum of the following terms:

     one-electron contribution =    -122.50215860 Ry
     hartree contribution      =     100.07002954 Ry
     xc contribution           =    -121.79339370 Ry
     ewald contribution        =    -302.48133581 Ry

     convergence has been achieved in  13 iterations

     Forces acting on atoms (cartesian axes, Ry/au):

     atom    1 type  1   force =    -0.00084075   -0.00084075    0.00000000
     atom    2 type  1   force =    -0.00120577   -0.00120577    0.00000000
     atom    3 type  2   force =    -0.00147462    0.00146884    0.00000000
     atom    4 type  2   force =     0.00146884   -0.00147462    0.00000000
     atom    5 type  2   force =    -0.00064849   -0.00064849    0.00000000
     atom    6 type  2   force =     0.00270080    0.00270080    0.00000000

     Total force =     0.005331     Total SCF correction =     0.000000


     Computing stress (Cartesian axis) and pressure

          total   stress  (Ry/bohr**3)                   (kbar)     P=-1340.96
  -0.00918038   0.00000216   0.00000000      -1350.48      0.32      0.00
   0.00000216  -0.00918038   0.00000000          0.32  -1350.48      0.00
   0.00000000   0.00000000  -0.00898622          0.00      0.00  -1321.92


     BFGS Geometry Optimization

     number of scf cycles    =   1
     number of bfgs steps    =   0

     enthalpy new            =    -446.7068585825 Ry

     new trust radius        =       0.5000000000 bohr
     new conv_thr            =            1.0E-12 Ry

     new unit-cell volume =    356.75349 a.u.^3 (    52.86541 Ang^3 )
     density =      9.46768 g/cm^3

CELL_PARAMETERS (alat=  9.11000000)
   0.888922769   0.000000000   0.000000000
   0.000000000   0.888922769   0.000000000
   0.000000000   0.000000000   0.597152210

ATOMIC_POSITIONS (crystal)
Sn      -0.000044666  -0.000044666   0.000000000
Sn       0.499935942   0.499935942   0.500000000
O        0.805921659   0.193078033   0.500000000
O        0.193078033   0.805921659   0.500000000
O        0.305965548   0.305965548   0.000000000
O        0.693143482   0.693143482   0.000000000



     Writing output data file SnO2.save
     NEW-OLD atomic charge density approx. for the potential

     Check: negative/imaginary core charge=   -0.000066    0.000000

     negative rho (up, down):  7.637E-03 0.000E+00
     extrapolated charge   30.16583, renormalised to   52.00000

     total cpu time spent up to now is      605.4 secs

     Self-consistent Calculation

     iteration #  1     ecut=    45.00 Ry     beta= 0.70
     Davidson diagonalization with overlap
     ethr =  1.00E-06,  avg # of iterations = 10.8

     total cpu time spent up to now is      721.7 secs

     total energy              =    -433.34871179 Ry
     Harris-Foulkes estimate   =    -478.11208791 Ry
     estimated scf accuracy    <      16.46426921 Ry

     iteration #  2     ecut=    45.00 Ry     beta= 0.70
     Davidson diagonalization with overlap
     ethr =  1.00E-02,  avg # of iterations =  3.0

     total cpu time spent up to now is      776.3 secs

     total energy              =    -445.74501036 Ry
     Harris-Foulkes estimate   =    -450.62480826 Ry
     estimated scf accuracy    <       9.99718144 Ry

     iteration #  3     ecut=    45.00 Ry     beta= 0.70
     Davidson diagonalization with overlap
     ethr =  1.00E-02,  avg # of iterations =  2.0

     total cpu time spent up to now is      818.6 secs

     total energy              =    -446.90283589 Ry
     Harris-Foulkes estimate   =    -447.09669080 Ry
     estimated scf accuracy    <       0.40551245 Ry

     iteration #  4     ecut=    45.00 Ry     beta= 0.70
     Davidson diagonalization with overlap
     ethr =  7.80E-04,  avg # of iterations =  2.0

     total cpu time spent up to now is      856.5 secs

     total energy              =    -446.90582089 Ry
     Harris-Foulkes estimate   =    -446.95384640 Ry
     estimated scf accuracy    <       0.08809004 Ry

     iteration #  5     ecut=    45.00 Ry     beta= 0.70
     Davidson diagonalization with overlap
     ethr =  1.69E-04,  avg # of iterations =  2.0

     total cpu time spent up to now is      899.0 secs

     total energy              =    -446.92655968 Ry
     Harris-Foulkes estimate   =    -446.92665514 Ry
     estimated scf accuracy    <       0.00063036 Ry

     iteration #  6     ecut=    45.00 Ry     beta= 0.70
     Davidson diagonalization with overlap
     ethr =  1.21E-06,  avg # of iterations =  2.3

     total cpu time spent up to now is      943.1 secs

     total energy              =    -446.92667765 Ry
     Harris-Foulkes estimate   =    -446.92676641 Ry
     estimated scf accuracy    <       0.00019997 Ry

     iteration #  7     ecut=    45.00 Ry     beta= 0.70
     Davidson diagonalization with overlap
     ethr =  3.85E-07,  avg # of iterations =  2.0

     total cpu time spent up to now is      982.0 secs

     total energy              =    -446.92668805 Ry
     Harris-Foulkes estimate   =    -446.92669805 Ry
     estimated scf accuracy    <       0.00001834 Ry

     iteration #  8     ecut=    45.00 Ry     beta= 0.70
     Davidson diagonalization with overlap
     ethr =  3.53E-08,  avg # of iterations =  2.1

     total cpu time spent up to now is     1028.0 secs

     total energy              =    -446.92669137 Ry
     Harris-Foulkes estimate   =    -446.92669154 Ry
     estimated scf accuracy    <       0.00000036 Ry

     iteration #  9     ecut=    45.00 Ry     beta= 0.70
     Davidson diagonalization with overlap
     ethr =  6.95E-10,  avg # of iterations =  3.0

     total cpu time spent up to now is     1072.2 secs

     total energy              =    -446.92669147 Ry
     Harris-Foulkes estimate   =    -446.92669148 Ry
     estimated scf accuracy    <       0.00000004 Ry

     iteration # 10     ecut=    45.00 Ry     beta= 0.70
     Davidson diagonalization with overlap
     ethr =  8.45E-11,  avg # of iterations =  3.0

     total cpu time spent up to now is     1114.2 secs

     total energy              =    -446.92669148 Ry
     Harris-Foulkes estimate   =    -446.92669148 Ry
     estimated scf accuracy    <          2.8E-09 Ry

     iteration # 11     ecut=    45.00 Ry     beta= 0.70
     Davidson diagonalization with overlap
     ethr =  5.31E-12,  avg # of iterations =  2.0

     total cpu time spent up to now is     1158.3 secs

     total energy              =    -446.92669148 Ry
     Harris-Foulkes estimate   =    -446.92669148 Ry
     estimated scf accuracy    <          1.3E-10 Ry

     iteration # 12     ecut=    45.00 Ry     beta= 0.70
     Davidson diagonalization with overlap
     ethr =  2.57E-13,  avg # of iterations =  2.8

     total cpu time spent up to now is     1206.2 secs

     total energy              =    -446.92669148 Ry
     Harris-Foulkes estimate   =    -446.92669148 Ry
     estimated scf accuracy    <          1.7E-11 Ry

     iteration # 13     ecut=    45.00 Ry     beta= 0.70
     Davidson diagonalization with overlap
     ethr =  1.00E-13,  avg # of iterations =  2.0

     total cpu time spent up to now is     1244.3 secs

     total energy              =    -446.92669148 Ry
     Harris-Foulkes estimate   =    -446.92669148 Ry
     estimated scf accuracy    <          3.0E-12 Ry

     iteration # 14     ecut=    45.00 Ry     beta= 0.70
     Davidson diagonalization with overlap
     ethr =  1.00E-13,  avg # of iterations =  1.0

     total cpu time spent up to now is     1277.2 secs

     End of self-consistent calculation

     Number of k-points >= 100: set verbosity='high' to print the bands.

     highest occupied level (ev):    15.0664

!    total energy              =    -446.92669148 Ry
     Harris-Foulkes estimate   =    -446.92669148 Ry
     estimated scf accuracy    <          1.6E-13 Ry

     The total energy is the sum of the following terms:

     one-electron contribution =     -68.53448959 Ry
     hartree contribution      =      85.69968940 Ry
     xc contribution           =    -124.00793355 Ry
     ewald contribution        =    -340.08395774 Ry

     convergence has been achieved in  14 iterations

     Forces acting on atoms (cartesian axes, Ry/au):

     atom    1 type  1   force =    -0.00320381   -0.00320381    0.00000000
     atom    2 type  1   force =    -0.00231270   -0.00231270    0.00000000
     atom    3 type  2   force =    -0.05482997    0.05383495    0.00000000
     atom    4 type  2   force =     0.05383495   -0.05482997    0.00000000
     atom    5 type  2   force =    -0.05089642   -0.05089642    0.00000000
     atom    6 type  2   force =     0.05740794    0.05740794    0.00000000

     Total force =     0.153664     Total SCF correction =     0.000001


     Computing stress (Cartesian axis) and pressure

          total   stress  (Ry/bohr**3)                   (kbar)     P= 1234.44
   0.00741138   0.00000069   0.00000000       1090.25      0.10      0.00
   0.00000069   0.00741138   0.00000000          0.10   1090.25      0.00
   0.00000000   0.00000000   0.01035180          0.00      0.00   1522.80


     number of scf cycles    =   2
     number of bfgs steps    =   1

     enthalpy old            =    -446.7068585825 Ry
     enthalpy new            =    -446.9266914840 Ry

     CASE: enthalpy_new < enthalpy_old

     new trust radius        =       0.2879040094 bohr
     new conv_thr            =            1.0E-12 Ry

     new unit-cell volume =    413.36186 a.u.^3 (    61.25391 Ang^3 )
     density =      8.17112 g/cm^3

CELL_PARAMETERS (alat=  9.11000000)
   0.922350177   0.000000000   0.000000000
   0.000000000   0.922350177   0.000000000
   0.000000000   0.000000000   0.642663448

ATOMIC_POSITIONS (crystal)
Sn      -0.000246413  -0.000246413   0.000000000
Sn       0.499775538   0.499775538   0.500000000
O        0.802787481   0.196155852   0.500000000
O        0.196155852   0.802787481   0.500000000
O        0.303073985   0.303073985   0.000000000
O        0.696453556   0.696453556   0.000000000



     Writing output data file SnO2.save
     NEW-OLD atomic charge density approx. for the potential

     Check: negative/imaginary core charge=   -0.000139    0.000000

     negative rho (up, down):  5.361E-06 0.000E+00
     extrapolated charge   59.12078, renormalised to   52.00000

     total cpu time spent up to now is     1295.1 secs

     Self-consistent Calculation

     iteration #  1     ecut=    45.00 Ry     beta= 0.70
     Davidson diagonalization with overlap
     ethr =  1.00E-06,  avg # of iterations =  7.3

     negative rho (up, down):  1.105E-06 0.000E+00

     total cpu time spent up to now is     1388.5 secs

     total energy              =    -444.55167311 Ry
     Harris-Foulkes estimate   =    -434.51624398 Ry
     estimated scf accuracy    <       1.45890513 Ry

     iteration #  2     ecut=    45.00 Ry     beta= 0.70
     Davidson diagonalization with overlap
     ethr =  2.81E-03,  avg # of iterations =  4.0

     negative rho (up, down):  3.999E-07 0.000E+00

     total cpu time spent up to now is     1451.3 secs

     total energy              =    -447.16752227 Ry
     Harris-Foulkes estimate   =    -448.37836047 Ry
     estimated scf accuracy    <       3.15896118 Ry

     iteration #  3     ecut=    45.00 Ry     beta= 0.70
     Davidson diagonalization with overlap
     ethr =  2.81E-03,  avg # of iterations =  2.0

     total cpu time spent up to now is     1492.8 secs

     total energy              =    -447.25493137 Ry
     Harris-Foulkes estimate   =    -447.39188334 Ry
     estimated scf accuracy    <       0.54724973 Ry

     iteration #  4     ecut=    45.00 Ry     beta= 0.70
     Davidson diagonalization with overlap
     ethr =  1.05E-03,  avg # of iterations =  1.0

     total cpu time spent up to now is     1525.7 secs

     total energy              =    -447.14551080 Ry
     Harris-Foulkes estimate   =    -447.26574419 Ry
     estimated scf accuracy    <       0.29087078 Ry

     iteration #  5     ecut=    45.00 Ry     beta= 0.70
     Davidson diagonalization with overlap
     ethr =  5.59E-04,  avg # of iterations =  2.0

     total cpu time spent up to now is     1562.2 secs

     total energy              =    -447.14396334 Ry
     Harris-Foulkes estimate   =    -447.16842860 Ry
     estimated scf accuracy    <       0.04045189 Ry

     iteration #  6     ecut=    45.00 Ry     beta= 0.70
     Davidson diagonalization with overlap
     ethr =  7.78E-05,  avg # of iterations =  2.1

     total cpu time spent up to now is     1609.1 secs

     total energy              =    -447.15363900 Ry
     Harris-Foulkes estimate   =    -447.15384755 Ry
     estimated scf accuracy    <       0.00048290 Ry

     iteration #  7     ecut=    45.00 Ry     beta= 0.70
     Davidson diagonalization with overlap
     ethr =  9.29E-07,  avg # of iterations =  3.0

     total cpu time spent up to now is     1661.3 secs

     total energy              =    -447.15352705 Ry
     Harris-Foulkes estimate   =    -447.15410656 Ry
     estimated scf accuracy    <       0.00098341 Ry

     iteration #  8     ecut=    45.00 Ry     beta= 0.70
     Davidson diagonalization with overlap
     ethr =  9.29E-07,  avg # of iterations =  2.0

     total cpu time spent up to now is     1707.5 secs

     total energy              =    -447.15370621 Ry
     Harris-Foulkes estimate   =    -447.15371129 Ry
     estimated scf accuracy    <       0.00001076 Ry

     iteration #  9     ecut=    45.00 Ry     beta= 0.70
     Davidson diagonalization with overlap
     ethr =  2.07E-08,  avg # of iterations =  3.0

     total cpu time spent up to now is     1754.0 secs

     total energy              =    -447.15370908 Ry
     Harris-Foulkes estimate   =    -447.15371126 Ry
     estimated scf accuracy    <       0.00000539 Ry

     iteration # 10     ecut=    45.00 Ry     beta= 0.70
     Davidson diagonalization with overlap
     ethr =  1.04E-08,  avg # of iterations =  2.0

     total cpu time spent up to now is     1790.6 secs

     total energy              =    -447.15370895 Ry
     Harris-Foulkes estimate   =    -447.15370950 Ry
     estimated scf accuracy    <       0.00000121 Ry

     iteration # 11     ecut=    45.00 Ry     beta= 0.70
     Davidson diagonalization with overlap
     ethr =  2.33E-09,  avg # of iterations =  2.1

     total cpu time spent up to now is     1832.0 secs

     total energy              =    -447.15370918 Ry
     Harris-Foulkes estimate   =    -447.15370919 Ry
     estimated scf accuracy    <          9.1E-09 Ry

     iteration # 12     ecut=    45.00 Ry     beta= 0.70
     Davidson diagonalization with overlap
     ethr =  1.75E-11,  avg # of iterations =  3.6

     total cpu time spent up to now is     1883.5 secs

     total energy              =    -447.15370919 Ry
     Harris-Foulkes estimate   =    -447.15370919 Ry
     estimated scf accuracy    <          3.8E-10 Ry

     iteration # 13     ecut=    45.00 Ry     beta= 0.70
     Davidson diagonalization with overlap
     ethr =  7.30E-13,  avg # of iterations =  3.0

     total cpu time spent up to now is     1927.1 secs

     total energy              =    -447.15370919 Ry
     Harris-Foulkes estimate   =    -447.15370919 Ry
     estimated scf accuracy    <          6.1E-11 Ry

     iteration # 14     ecut=    45.00 Ry     beta= 0.70
     Davidson diagonalization with overlap
     ethr =  1.17E-13,  avg # of iterations =  3.0

     total cpu time spent up to now is     1975.4 secs

     total energy              =    -447.15370919 Ry
     Harris-Foulkes estimate   =    -447.15370919 Ry
     estimated scf accuracy    <          7.2E-11 Ry

     iteration # 15     ecut=    45.00 Ry     beta= 0.70
     Davidson diagonalization with overlap
     ethr =  1.17E-13,  avg # of iterations =  2.1

     total cpu time spent up to now is     2016.1 secs

     total energy              =    -447.15370919 Ry
     Harris-Foulkes estimate   =    -447.15370919 Ry
     estimated scf accuracy    <          3.9E-12 Ry

     iteration # 16     ecut=    45.00 Ry     beta= 0.70
     Davidson diagonalization with overlap
     ethr =  1.00E-13,  avg # of iterations =  1.0

     total cpu time spent up to now is     2048.8 secs

     total energy              =    -447.15370919 Ry
     Harris-Foulkes estimate   =    -447.15370919 Ry
     estimated scf accuracy    <          1.2E-12 Ry

     iteration # 17     ecut=    45.00 Ry     beta= 0.70
     Davidson diagonalization with overlap
     ethr =  1.00E-13,  avg # of iterations =  1.0

     total cpu time spent up to now is     2081.5 secs

     End of self-consistent calculation

     Number of k-points >= 100: set verbosity='high' to print the bands.

     highest occupied level (ev):    12.3397

!    total energy              =    -447.15370919 Ry
     Harris-Foulkes estimate   =    -447.15370919 Ry
     estimated scf accuracy    <          8.1E-14 Ry

     The total energy is the sum of the following terms:

     one-electron contribution =     -89.41704886 Ry
     hartree contribution      =      90.45696449 Ry
     xc contribution           =    -123.00491676 Ry
     ewald contribution        =    -325.18870807 Ry

     convergence has been achieved in  17 iterations

     Forces acting on atoms (cartesian axes, Ry/au):

     atom    1 type  1   force =     0.00019399    0.00019399    0.00000000
     atom    2 type  1   force =     0.00017127    0.00017127    0.00000000
     atom    3 type  2   force =     0.01309940   -0.01297716    0.00000000
     atom    4 type  2   force =    -0.01297716    0.01309940    0.00000000
     atom    5 type  2   force =     0.01282044    0.01282044    0.00000000
     atom    6 type  2   force =    -0.01330794   -0.01330794    0.00000000

     Total force =     0.036920     Total SCF correction =     0.000000


     Computing stress (Cartesian axis) and pressure

          total   stress  (Ry/bohr**3)                   (kbar)     P=  -17.93
   0.00034201   0.00000068   0.00000000         50.31      0.10      0.00
   0.00000068   0.00034201   0.00000000          0.10     50.31      0.00
   0.00000000   0.00000000  -0.00104961          0.00      0.00   -154.40


     number of scf cycles    =   3
     number of bfgs steps    =   2

     enthalpy old            =    -446.9266914840 Ry
     enthalpy new            =    -447.1537091872 Ry

     CASE: enthalpy_new < enthalpy_old

     new trust radius        =       0.0717348255 bohr
     new conv_thr            =            1.0E-12 Ry

     new unit-cell volume =    415.43772 a.u.^3 (    61.56152 Ang^3 )
     density =      8.13029 g/cm^3

CELL_PARAMETERS (alat=  9.11000000)
   0.932928989   0.000000000   0.000000000
   0.000000000   0.932928989   0.000000000
   0.000000000   0.000000000   0.631325918

ATOMIC_POSITIONS (crystal)
Sn      -0.000233096  -0.000233096   0.000000000
Sn       0.499788364   0.499788364   0.500000000
O        0.803956689   0.194996691   0.500000000
O        0.194996691   0.803956689   0.500000000
O        0.304222967   0.304222967   0.000000000
O        0.695268385   0.695268385   0.000000000



     Writing output data file SnO2.save
     NEW-OLD atomic charge density approx. for the potential

     Check: negative/imaginary core charge=   -0.000138    0.000000
     extrapolated charge   52.25982, renormalised to   52.00000

     total cpu time spent up to now is     2099.4 secs

     Self-consistent Calculation

     iteration #  1     ecut=    45.00 Ry     beta= 0.70
     Davidson diagonalization with overlap
     ethr =  1.00E-06,  avg # of iterations =  6.2

     total cpu time spent up to now is     2177.1 secs

     total energy              =    -447.15426255 Ry
     Harris-Foulkes estimate   =    -446.68923916 Ry
     estimated scf accuracy    <       0.00169134 Ry

     iteration #  2     ecut=    45.00 Ry     beta= 0.70
     Davidson diagonalization with overlap
     ethr =  3.25E-06,  avg # of iterations =  4.0

     total cpu time spent up to now is     2235.9 secs

     total energy              =    -447.15693347 Ry
     Harris-Foulkes estimate   =    -447.15819977 Ry
     estimated scf accuracy    <       0.00332591 Ry

     iteration #  3     ecut=    45.00 Ry     beta= 0.70
     Davidson diagonalization with overlap
     ethr =  3.25E-06,  avg # of iterations =  2.0

     total cpu time spent up to now is     2276.7 secs

     total energy              =    -447.15699406 Ry
     Harris-Foulkes estimate   =    -447.15718690 Ry
     estimated scf accuracy    <       0.00051784 Ry

     iteration #  4     ecut=    45.00 Ry     beta= 0.70
     Davidson diagonalization with overlap
     ethr =  9.96E-07,  avg # of iterations =  2.0

     total cpu time spent up to now is     2312.1 secs

     total energy              =    -447.15692764 Ry
     Harris-Foulkes estimate   =    -447.15702219 Ry
     estimated scf accuracy    <       0.00016510 Ry

     iteration #  5     ecut=    45.00 Ry     beta= 0.70
     Davidson diagonalization with overlap
     ethr =  3.17E-07,  avg # of iterations =  2.0

     total cpu time spent up to now is     2357.9 secs

     total energy              =    -447.15697088 Ry
     Harris-Foulkes estimate   =    -447.15697387 Ry
     estimated scf accuracy    <       0.00000539 Ry

     iteration #  6     ecut=    45.00 Ry     beta= 0.70
     Davidson diagonalization with overlap
     ethr =  1.04E-08,  avg # of iterations =  2.0

     total cpu time spent up to now is     2400.1 secs

     total energy              =    -447.15697219 Ry
     Harris-Foulkes estimate   =    -447.15697220 Ry
     estimated scf accuracy    <       0.00000003 Ry

     iteration #  7     ecut=    45.00 Ry     beta= 0.70
     Davidson diagonalization with overlap
     ethr =  4.98E-11,  avg # of iterations =  3.5

     total cpu time spent up to now is     2454.2 secs

     total energy              =    -447.15697221 Ry
     Harris-Foulkes estimate   =    -447.15697222 Ry
     estimated scf accuracy    <       0.00000002 Ry

     iteration #  8     ecut=    45.00 Ry     beta= 0.70
     Davidson diagonalization with overlap
     ethr =  3.46E-11,  avg # of iterations =  2.0

     total cpu time spent up to now is     2496.2 secs

     total energy              =    -447.15697221 Ry
     Harris-Foulkes estimate   =    -447.15697221 Ry
     estimated scf accuracy    <          1.5E-10 Ry

     iteration #  9     ecut=    45.00 Ry     beta= 0.70
     Davidson diagonalization with overlap
     ethr =  2.84E-13,  avg # of iterations =  3.0

     total cpu time spent up to now is     2545.4 secs

     total energy              =    -447.15697221 Ry
     Harris-Foulkes estimate   =    -447.15697221 Ry
     estimated scf accuracy    <          1.1E-10 Ry

     iteration # 10     ecut=    45.00 Ry     beta= 0.70
     Davidson diagonalization with overlap
     ethr =  2.11E-13,  avg # of iterations =  2.0

     total cpu time spent up to now is     2584.5 secs

     total energy              =    -447.15697221 Ry
     Harris-Foulkes estimate   =    -447.15697221 Ry
     estimated scf accuracy    <          1.4E-11 Ry

     iteration # 11     ecut=    45.00 Ry     beta= 0.70
     Davidson diagonalization with overlap
     ethr =  1.00E-13,  avg # of iterations =  2.0

     total cpu time spent up to now is     2619.9 secs

     End of self-consistent calculation

     Number of k-points >= 100: set verbosity='high' to print the bands.

     highest occupied level (ev):    12.2612

!    total energy              =    -447.15697221 Ry
     Harris-Foulkes estimate   =    -447.15697221 Ry
     estimated scf accuracy    <          3.5E-13 Ry

     The total energy is the sum of the following terms:

     one-electron contribution =     -91.98832761 Ry
     hartree contribution      =      91.53049597 Ry
     xc contribution           =    -123.00281670 Ry
     ewald contribution        =    -323.69632387 Ry

     convergence has been achieved in  11 iterations

     Forces acting on atoms (cartesian axes, Ry/au):

     atom    1 type  1   force =     0.00001426    0.00001426    0.00000000
     atom    2 type  1   force =    -0.00000988   -0.00000988    0.00000000
     atom    3 type  2   force =    -0.00874370    0.00883679    0.00000000
     atom    4 type  2   force =     0.00883679   -0.00874370    0.00000000
     atom    5 type  2   force =    -0.00881258   -0.00881258    0.00000000
     atom    6 type  2   force =     0.00871511    0.00871511    0.00000000

     Total force =     0.024826     Total SCF correction =     0.000001


     Computing stress (Cartesian axis) and pressure

          total   stress  (Ry/bohr**3)                   (kbar)     P=  -28.28
  -0.00036826   0.00000041   0.00000000        -54.17      0.06      0.00
   0.00000041  -0.00036826   0.00000000          0.06    -54.17      0.00
   0.00000000   0.00000000   0.00015986          0.00      0.00     23.52


     number of scf cycles    =   4
     number of bfgs steps    =   3

     enthalpy old            =    -447.1537091872 Ry
     enthalpy new            =    -447.1569722139 Ry

     CASE: enthalpy_new < enthalpy_old

     new trust radius        =       0.0176688152 bohr
     new conv_thr            =            1.0E-12 Ry

     new unit-cell volume =    413.42057 a.u.^3 (    61.26261 Ang^3 )
     density =      8.16996 g/cm^3

CELL_PARAMETERS (alat=  9.11000000)
   0.928885344   0.000000000   0.000000000
   0.000000000   0.928885344   0.000000000
   0.000000000   0.000000000   0.633742347

ATOMIC_POSITIONS (crystal)
Sn      -0.000232457  -0.000232457   0.000000000
Sn       0.499787714   0.499787714   0.500000000
O        0.803343955   0.195615883   0.500000000
O        0.195615883   0.803343955   0.500000000
O        0.303605839   0.303605839   0.000000000
O        0.695879066   0.695879066   0.000000000



     Writing output data file SnO2.save
     NEW-OLD atomic charge density approx. for the potential

     Check: negative/imaginary core charge=   -0.000136    0.000000
     extrapolated charge   51.74630, renormalised to   52.00000

     total cpu time spent up to now is     2637.8 secs

     Self-consistent Calculation

     iteration #  1     ecut=    45.00 Ry     beta= 0.70
     Davidson diagonalization with overlap
     ethr =  1.00E-06,  avg # of iterations =  4.4

     total cpu time spent up to now is     2706.1 secs

     total energy              =    -447.15521999 Ry
     Harris-Foulkes estimate   =    -447.60917069 Ry
     estimated scf accuracy    <       0.00163796 Ry

     iteration #  2     ecut=    45.00 Ry     beta= 0.70
     Davidson diagonalization with overlap
     ethr =  3.15E-06,  avg # of iterations =  4.0

     total cpu time spent up to now is     2765.2 secs

     total energy              =    -447.15791021 Ry
     Harris-Foulkes estimate   =    -447.15919831 Ry
     estimated scf accuracy    <       0.00337423 Ry

     iteration #  3     ecut=    45.00 Ry     beta= 0.70
     Davidson diagonalization with overlap
     ethr =  3.15E-06,  avg # of iterations =  2.0

     total cpu time spent up to now is     2806.7 secs

     total energy              =    -447.15802915 Ry
     Harris-Foulkes estimate   =    -447.15817261 Ry
     estimated scf accuracy    <       0.00050469 Ry

     iteration #  4     ecut=    45.00 Ry     beta= 0.70
     Davidson diagonalization with overlap
     ethr =  9.71E-07,  avg # of iterations =  1.0

     total cpu time spent up to now is     2839.6 secs

     total energy              =    -447.15791075 Ry
     Harris-Foulkes estimate   =    -447.15804381 Ry
     estimated scf accuracy    <       0.00023503 Ry

     iteration #  5     ecut=    45.00 Ry     beta= 0.70
     Davidson diagonalization with overlap
     ethr =  4.52E-07,  avg # of iterations =  2.0

     total cpu time spent up to now is     2885.7 secs

     total energy              =    -447.15796044 Ry
     Harris-Foulkes estimate   =    -447.15796110 Ry
     estimated scf accuracy    <       0.00000110 Ry

     iteration #  6     ecut=    45.00 Ry     beta= 0.70
     Davidson diagonalization with overlap
     ethr =  2.12E-09,  avg # of iterations =  3.0

     total cpu time spent up to now is     2931.0 secs

     total energy              =    -447.15796086 Ry
     Harris-Foulkes estimate   =    -447.15796089 Ry
     estimated scf accuracy    <       0.00000006 Ry

     iteration #  7     ecut=    45.00 Ry     beta= 0.70
     Davidson diagonalization with overlap
     ethr =  1.10E-10,  avg # of iterations =  2.0

     total cpu time spent up to now is     2977.2 secs

     total energy              =    -447.15796087 Ry
     Harris-Foulkes estimate   =    -447.15796087 Ry
     estimated scf accuracy    <          7.0E-09 Ry

     iteration #  8     ecut=    45.00 Ry     beta= 0.70
     Davidson diagonalization with overlap
     ethr =  1.34E-11,  avg # of iterations =  2.2

     total cpu time spent up to now is     3022.4 secs

     total energy              =    -447.15796087 Ry
     Harris-Foulkes estimate   =    -447.15796087 Ry
     estimated scf accuracy    <          1.4E-10 Ry

     iteration #  9     ecut=    45.00 Ry     beta= 0.70
     Davidson diagonalization with overlap
     ethr =  2.64E-13,  avg # of iterations =  3.1

     total cpu time spent up to now is     3065.1 secs

     total energy              =    -447.15796087 Ry
     Harris-Foulkes estimate   =    -447.15796087 Ry
     estimated scf accuracy    <          5.1E-11 Ry

     iteration # 10     ecut=    45.00 Ry     beta= 0.70
     Davidson diagonalization with overlap
     ethr =  1.00E-13,  avg # of iterations =  2.0

     total cpu time spent up to now is     3103.0 secs

     total energy              =    -447.15796087 Ry
     Harris-Foulkes estimate   =    -447.15796087 Ry
     estimated scf accuracy    <          6.7E-12 Ry

     iteration # 11     ecut=    45.00 Ry     beta= 0.70
     Davidson diagonalization with overlap
     ethr =  1.00E-13,  avg # of iterations =  1.0

     total cpu time spent up to now is     3135.8 secs

     End of self-consistent calculation

     Number of k-points >= 100: set verbosity='high' to print the bands.

     highest occupied level (ev):    12.3452

!    total energy              =    -447.15796087 Ry
     Harris-Foulkes estimate   =    -447.15796087 Ry
     estimated scf accuracy    <          5.6E-14 Ry

     The total energy is the sum of the following terms:

     one-electron contribution =     -90.65605812 Ry
     hartree contribution      =      91.04951054 Ry
     xc contribution           =    -123.02415257 Ry
     ewald contribution        =    -324.52726072 Ry

     convergence has been achieved in  11 iterations

     Forces acting on atoms (cartesian axes, Ry/au):

     atom    1 type  1   force =    -0.00002556   -0.00002556    0.00000000
     atom    2 type  1   force =     0.00000002    0.00000002    0.00000000
     atom    3 type  2   force =    -0.00098477    0.00106366    0.00000000
     atom    4 type  2   force =     0.00106366   -0.00098477    0.00000000
     atom    5 type  2   force =    -0.00105424   -0.00105424    0.00000000
     atom    6 type  2   force =     0.00100089    0.00100089    0.00000000

     Total force =     0.002903     Total SCF correction =     0.000001


     Computing stress (Cartesian axis) and pressure

          total   stress  (Ry/bohr**3)                   (kbar)     P=    0.05
   0.00000272   0.00000038   0.00000000          0.40      0.06      0.00
   0.00000038   0.00000272   0.00000000          0.06      0.40      0.00
   0.00000000   0.00000000  -0.00000437          0.00      0.00     -0.64


     number of scf cycles    =   5
     number of bfgs steps    =   4

     enthalpy old            =    -447.1569722139 Ry
     enthalpy new            =    -447.1579608709 Ry

     CASE: enthalpy_new < enthalpy_old

     new trust radius        =       0.0012871332 bohr
     new conv_thr            =            1.0E-12 Ry

     new unit-cell volume =    413.40878 a.u.^3 (    61.26086 Ang^3 )
     density =      8.17019 g/cm^3

CELL_PARAMETERS (alat=  9.11000000)
   0.928942164   0.000000000   0.000000000
   0.000000000   0.928942164   0.000000000
   0.000000000   0.000000000   0.633646754

ATOMIC_POSITIONS (crystal)
Sn      -0.000235061  -0.000235061   0.000000000
Sn       0.499787744   0.499787744   0.500000000
O        0.803243640   0.195724386   0.500000000
O        0.195724386   0.803243640   0.500000000
O        0.303498285   0.303498285   0.000000000
O        0.695981006   0.695981006   0.000000000



     Writing output data file SnO2.save
     NEW-OLD atomic charge density approx. for the potential

     Check: negative/imaginary core charge=   -0.000136    0.000000
     extrapolated charge   51.99852, renormalised to   52.00000

     total cpu time spent up to now is     3153.5 secs

     Self-consistent Calculation

     iteration #  1     ecut=    45.00 Ry     beta= 0.70
     Davidson diagonalization with overlap
     ethr =  1.00E-06,  avg # of iterations =  2.9

     Threshold (ethr) on eigenvalues was too large:
     Diagonalizing with lowered threshold

     Davidson diagonalization with overlap
     ethr =  1.82E-09,  avg # of iterations =  3.1

     total cpu time spent up to now is     3244.5 secs

     total energy              =    -447.15796598 Ry
     Harris-Foulkes estimate   =    -447.16060526 Ry
     estimated scf accuracy    <       0.00000111 Ry

     iteration #  2     ecut=    45.00 Ry     beta= 0.70
     Davidson diagonalization with overlap
     ethr =  2.14E-09,  avg # of iterations =  2.1

     total cpu time spent up to now is     3289.7 secs

     total energy              =    -447.15796623 Ry
     Harris-Foulkes estimate   =    -447.15796630 Ry
     estimated scf accuracy    <       0.00000014 Ry

     iteration #  3     ecut=    45.00 Ry     beta= 0.70
     Davidson diagonalization with overlap
     ethr =  2.62E-10,  avg # of iterations =  2.0

     total cpu time spent up to now is     3331.6 secs

     total energy              =    -447.15796626 Ry
     Harris-Foulkes estimate   =    -447.15796626 Ry
     estimated scf accuracy    <       0.00000002 Ry

     iteration #  4     ecut=    45.00 Ry     beta= 0.70
     Davidson diagonalization with overlap
     ethr =  3.13E-11,  avg # of iterations =  3.0

     total cpu time spent up to now is     3375.2 secs

     total energy              =    -447.15796626 Ry
     Harris-Foulkes estimate   =    -447.15796626 Ry
     estimated scf accuracy    <          1.3E-09 Ry

     iteration #  5     ecut=    45.00 Ry     beta= 0.70
     Davidson diagonalization with overlap
     ethr =  2.46E-12,  avg # of iterations =  2.9

     total cpu time spent up to now is     3418.1 secs

     total energy              =    -447.15796626 Ry
     Harris-Foulkes estimate   =    -447.15796626 Ry
     estimated scf accuracy    <          9.4E-11 Ry

     iteration #  6     ecut=    45.00 Ry     beta= 0.70
     Davidson diagonalization with overlap
     ethr =  1.81E-13,  avg # of iterations =  3.1

     total cpu time spent up to now is     3466.5 secs

     total energy              =    -447.15796626 Ry
     Harris-Foulkes estimate   =    -447.15796626 Ry
     estimated scf accuracy    <          4.9E-11 Ry

     iteration #  7     ecut=    45.00 Ry     beta= 0.70
     Davidson diagonalization with overlap
     ethr =  1.00E-13,  avg # of iterations =  2.6

     total cpu time spent up to now is     3507.1 secs

     End of self-consistent calculation

     Number of k-points >= 100: set verbosity='high' to print the bands.

     highest occupied level (ev):    12.3462

!    total energy              =    -447.15796626 Ry
     Harris-Foulkes estimate   =    -447.15796626 Ry
     estimated scf accuracy    <          2.5E-13 Ry

     The total energy is the sum of the following terms:

     one-electron contribution =     -90.64536388 Ry
     hartree contribution      =      91.04439807 Ry
     xc contribution           =    -123.02423350 Ry
     ewald contribution        =    -324.53276695 Ry

     convergence has been achieved in   7 iterations

     Forces acting on atoms (cartesian axes, Ry/au):

     atom    1 type  1   force =    -0.00002579   -0.00002579    0.00000000
     atom    2 type  1   force =    -0.00001899   -0.00001899    0.00000000
     atom    3 type  2   force =    -0.00035174    0.00042492    0.00000000
     atom    4 type  2   force =     0.00042492   -0.00035174    0.00000000
     atom    5 type  2   force =    -0.00040398   -0.00040398    0.00000000
     atom    6 type  2   force =     0.00037558    0.00037558    0.00000000

     Total force =     0.001104     Total SCF correction =     0.000001


     Computing stress (Cartesian axis) and pressure

          total   stress  (Ry/bohr**3)                   (kbar)     P=    0.26
   0.00000379   0.00000039   0.00000000          0.56      0.06      0.00
   0.00000039   0.00000379   0.00000000          0.06      0.56      0.00
   0.00000000   0.00000000  -0.00000229          0.00      0.00     -0.34


     number of scf cycles    =   6
     number of bfgs steps    =   5

     enthalpy old            =    -447.1579608709 Ry
     enthalpy new            =    -447.1579662604 Ry

     CASE: enthalpy_new < enthalpy_old

     new trust radius        =       0.0008803252 bohr
     new conv_thr            =            1.0E-12 Ry

     new unit-cell volume =    413.42665 a.u.^3 (    61.26351 Ang^3 )
     density =      8.16984 g/cm^3

CELL_PARAMETERS (alat=  9.11000000)
   0.929028680   0.000000000   0.000000000
   0.000000000   0.929028680   0.000000000
   0.000000000   0.000000000   0.633556127

ATOMIC_POSITIONS (crystal)
Sn      -0.000239492  -0.000239492   0.000000000
Sn       0.499784523   0.499784523   0.500000000
O        0.803179288   0.195801521   0.500000000
O        0.195801521   0.803179288   0.500000000
O        0.303424728   0.303424728   0.000000000
O        0.696049431   0.696049431   0.000000000



     Writing output data file SnO2.save
     NEW-OLD atomic charge density approx. for the potential

     Check: negative/imaginary core charge=   -0.000136    0.000000
     extrapolated charge   52.00225, renormalised to   52.00000

     total cpu time spent up to now is     3525.0 secs

     Self-consistent Calculation

     iteration #  1     ecut=    45.00 Ry     beta= 0.70
     Davidson diagonalization with overlap
     ethr =  1.00E-06,  avg # of iterations =  2.0

     Threshold (ethr) on eigenvalues was too large:
     Diagonalizing with lowered threshold

     Davidson diagonalization with overlap
     ethr =  1.26E-09,  avg # of iterations =  3.1

     total cpu time spent up to now is     3618.5 secs

     total energy              =    -447.15796705 Ry
     Harris-Foulkes estimate   =    -447.15396766 Ry
     estimated scf accuracy    <       0.00000072 Ry

     iteration #  2     ecut=    45.00 Ry     beta= 0.70
     Davidson diagonalization with overlap
     ethr =  1.39E-09,  avg # of iterations =  2.9

     total cpu time spent up to now is     3667.2 secs

     total energy              =    -447.15796738 Ry
     Harris-Foulkes estimate   =    -447.15796752 Ry
     estimated scf accuracy    <       0.00000028 Ry

     iteration #  3     ecut=    45.00 Ry     beta= 0.70
     Davidson diagonalization with overlap
     ethr =  5.32E-10,  avg # of iterations =  2.0

     total cpu time spent up to now is     3708.8 secs

     total energy              =    -447.15796742 Ry
     Harris-Foulkes estimate   =    -447.15796742 Ry
     estimated scf accuracy    <          9.9E-09 Ry

     iteration #  4     ecut=    45.00 Ry     beta= 0.70
     Davidson diagonalization with overlap
     ethr =  1.90E-11,  avg # of iterations =  2.2

     total cpu time spent up to now is     3755.5 secs

     total energy              =    -447.15796742 Ry
     Harris-Foulkes estimate   =    -447.15796742 Ry
     estimated scf accuracy    <          1.6E-09 Ry

     iteration #  5     ecut=    45.00 Ry     beta= 0.70
     Davidson diagonalization with overlap
     ethr =  3.12E-12,  avg # of iterations =  2.0

     total cpu time spent up to now is     3797.1 secs

     total energy              =    -447.15796742 Ry
     Harris-Foulkes estimate   =    -447.15796742 Ry
     estimated scf accuracy    <          4.1E-11 Ry

     iteration #  6     ecut=    45.00 Ry     beta= 0.70
     Davidson diagonalization with overlap
     ethr =  1.00E-13,  avg # of iterations =  3.0

     total cpu time spent up to now is     3848.5 secs

     total energy              =    -447.15796742 Ry
     Harris-Foulkes estimate   =    -447.15796742 Ry
     estimated scf accuracy    <          4.0E-11 Ry

     iteration #  7     ecut=    45.00 Ry     beta= 0.70
     Davidson diagonalization with overlap
     ethr =  1.00E-13,  avg # of iterations =  2.4

     total cpu time spent up to now is     3888.3 secs

     End of self-consistent calculation

     Number of k-points >= 100: set verbosity='high' to print the bands.

     highest occupied level (ev):    12.3457

!    total energy              =    -447.15796742 Ry
     Harris-Foulkes estimate   =    -447.15796742 Ry
     estimated scf accuracy    <          2.9E-13 Ry

     The total energy is the sum of the following terms:

     one-electron contribution =     -90.65301627 Ry
     hartree contribution      =      91.04597911 Ry
     xc contribution           =    -123.02397907 Ry
     ewald contribution        =    -324.52695119 Ry

     convergence has been achieved in   7 iterations

     Forces acting on atoms (cartesian axes, Ry/au):

     atom    1 type  1   force =    -0.00001548   -0.00001548    0.00000000
     atom    2 type  1   force =    -0.00002528   -0.00002528    0.00000000
     atom    3 type  2   force =     0.00003727    0.00003270    0.00000000
     atom    4 type  2   force =     0.00003270    0.00003727    0.00000000
     atom    5 type  2   force =    -0.00001247   -0.00001247    0.00000000
     atom    6 type  2   force =    -0.00001674   -0.00001674    0.00000000

     Total force =     0.000087     Total SCF correction =     0.000001


     Computing stress (Cartesian axis) and pressure

          total   stress  (Ry/bohr**3)                   (kbar)     P=    0.01
   0.00000016   0.00000040   0.00000000          0.02      0.06      0.00
   0.00000040   0.00000016  -0.00000000          0.06      0.02     -0.00
   0.00000000   0.00000000  -0.00000002          0.00      0.00     -0.00


     number of scf cycles    =   7
     number of bfgs steps    =   6

     enthalpy old            =    -447.1579662604 Ry
     enthalpy new            =    -447.1579674207 Ry

     CASE: enthalpy_new < enthalpy_old

     small trust_radius: resetting bfgs history

     new trust radius        =       0.0000495828 bohr
     new conv_thr            =            1.0E-12 Ry

     new unit-cell volume =    413.42967 a.u.^3 (    61.26396 Ang^3 )
     density =      8.16978 g/cm^3

CELL_PARAMETERS (alat=  9.11000000)
   0.929032336   0.000000000   0.000000000
   0.000000000   0.929032336   0.000000000
   0.000000000   0.000000000   0.633555769

ATOMIC_POSITIONS (crystal)
Sn      -0.000241321  -0.000241321   0.000000000
Sn       0.499781537   0.499781537   0.500000000
O        0.803183692   0.195805385   0.500000000
O        0.195805385   0.803183692   0.500000000
O        0.303423255   0.303423255   0.000000000
O        0.696047452   0.696047452   0.000000000



     Writing output data file SnO2.save
     NEW-OLD atomic charge density approx. for the potential

     Check: negative/imaginary core charge=   -0.000136    0.000000
     extrapolated charge   52.00038, renormalised to   52.00000

     total cpu time spent up to now is     3906.2 secs

     Self-consistent Calculation

     iteration #  1     ecut=    45.00 Ry     beta= 0.70
     Davidson diagonalization with overlap
     ethr =  1.00E-06,  avg # of iterations =  1.0

     Threshold (ethr) on eigenvalues was too large:
     Diagonalizing with lowered threshold

     Davidson diagonalization with overlap
     ethr =  2.98E-11,  avg # of iterations =  3.0

     total cpu time spent up to now is     3996.0 secs

     total energy              =    -447.15796742 Ry
     Harris-Foulkes estimate   =    -447.15729133 Ry
     estimated scf accuracy    <          4.7E-09 Ry

     iteration #  2     ecut=    45.00 Ry     beta= 0.70
     Davidson diagonalization with overlap
     ethr =  9.04E-12,  avg # of iterations =  3.9

     total cpu time spent up to now is     4052.5 secs

     total energy              =    -447.15796743 Ry
     Harris-Foulkes estimate   =    -447.15796743 Ry
     estimated scf accuracy    <          7.8E-09 Ry

     iteration #  3     ecut=    45.00 Ry     beta= 0.70
     Davidson diagonalization with overlap
     ethr =  9.04E-12,  avg # of iterations =  2.0

     total cpu time spent up to now is     4093.7 secs

     total energy              =    -447.15796743 Ry
     Harris-Foulkes estimate   =    -447.15796743 Ry
     estimated scf accuracy    <          9.9E-10 Ry

     iteration #  4     ecut=    45.00 Ry     beta= 0.70
     Davidson diagonalization with overlap
     ethr =  1.90E-12,  avg # of iterations =  2.0

     total cpu time spent up to now is     4130.4 secs

     total energy              =    -447.15796743 Ry
     Harris-Foulkes estimate   =    -447.15796743 Ry
     estimated scf accuracy    <          3.2E-10 Ry

     iteration #  5     ecut=    45.00 Ry     beta= 0.70
     Davidson diagonalization with overlap
     ethr =  6.11E-13,  avg # of iterations =  2.0

     total cpu time spent up to now is     4174.7 secs

     total energy              =    -447.15796743 Ry
     Harris-Foulkes estimate   =    -447.15796743 Ry
     estimated scf accuracy    <          3.7E-12 Ry

     iteration #  6     ecut=    45.00 Ry     beta= 0.70
     Davidson diagonalization with overlap
     ethr =  1.00E-13,  avg # of iterations =  1.0

     total cpu time spent up to now is     4207.4 secs

     End of self-consistent calculation

     Number of k-points >= 100: set verbosity='high' to print the bands.

     highest occupied level (ev):    12.3456

!    total energy              =    -447.15796743 Ry
     Harris-Foulkes estimate   =    -447.15796743 Ry
     estimated scf accuracy    <          4.0E-13 Ry

     The total energy is the sum of the following terms:

     one-electron contribution =     -90.65444741 Ry
     hartree contribution      =      91.04641983 Ry
     xc contribution           =    -123.02393663 Ry
     ewald contribution        =    -324.52600321 Ry

     convergence has been achieved in   6 iterations

     Forces acting on atoms (cartesian axes, Ry/au):

     atom    1 type  1   force =    -0.00001694   -0.00001694    0.00000000
     atom    2 type  1   force =    -0.00002440   -0.00002440    0.00000000
     atom    3 type  2   force =     0.00003262    0.00003535    0.00000000
     atom    4 type  2   force =     0.00003535    0.00003262    0.00000000
     atom    5 type  2   force =    -0.00001470   -0.00001470    0.00000000
     atom    6 type  2   force =    -0.00001192   -0.00001192    0.00000000

     Total force =     0.000084     Total SCF correction =     0.000002


     Computing stress (Cartesian axis) and pressure

          total   stress  (Ry/bohr**3)                   (kbar)     P=   -0.04
  -0.00000027   0.00000040   0.00000000         -0.04      0.06      0.00
   0.00000040  -0.00000027   0.00000000          0.06     -0.04      0.00
   0.00000000   0.00000000  -0.00000021          0.00      0.00     -0.03


     number of scf cycles    =   8
     number of bfgs steps    =   7

     enthalpy old            =    -447.1579674207 Ry
     enthalpy new            =    -447.1579674279 Ry

     CASE: enthalpy_new < enthalpy_old

     Message from routine bfgs:
     history already reset at previous step: stopping
     small trust_radius: resetting bfgs history

     new trust radius        =       0.0000480999 bohr
     new conv_thr            =            7.2E-13 Ry

     new unit-cell volume =    413.42187 a.u.^3 (    61.26280 Ang^3 )
     density =      8.16993 g/cm^3

CELL_PARAMETERS (alat=  9.11000000)
   0.929025958   0.000000000   0.000000000
   0.000000000   0.929025958   0.000000000
   0.000000000   0.000000000   0.633552517

ATOMIC_POSITIONS (crystal)
Sn      -0.000243323  -0.000243323   0.000000000
Sn       0.499778653   0.499778653   0.500000000
O        0.803187546   0.195809562   0.500000000
O        0.195809562   0.803187546   0.500000000
O        0.303421518   0.303421518   0.000000000
O        0.696046044   0.696046044   0.000000000



     Writing output data file SnO2.save
     NEW-OLD atomic charge density approx. for the potential

     Check: negative/imaginary core charge=   -0.000136    0.000000
     extrapolated charge   51.99902, renormalised to   52.00000

     total cpu time spent up to now is     4225.2 secs

     Self-consistent Calculation

     iteration #  1     ecut=    45.00 Ry     beta= 0.70
     Davidson diagonalization with overlap
     ethr =  1.00E-06,  avg # of iterations =  1.0

     Threshold (ethr) on eigenvalues was too large:
     Diagonalizing with lowered threshold

     Davidson diagonalization with overlap
     ethr =  6.77E-11,  avg # of iterations =  3.0

     total cpu time spent up to now is     4311.0 secs

     total energy              =    -447.15796739 Ry
     Harris-Foulkes estimate   =    -447.15971297 Ry
     estimated scf accuracy    <       0.00000003 Ry

     iteration #  2     ecut=    45.00 Ry     beta= 0.70
     Davidson diagonalization with overlap
     ethr =  5.21E-11,  avg # of iterations =  4.0

     total cpu time spent up to now is     4368.7 secs

     total energy              =    -447.15796743 Ry
     Harris-Foulkes estimate   =    -447.15796745 Ry
     estimated scf accuracy    <       0.00000005 Ry

     iteration #  3     ecut=    45.00 Ry     beta= 0.70
     Davidson diagonalization with overlap
     ethr =  5.21E-11,  avg # of iterations =  2.0

     total cpu time spent up to now is     4409.8 secs

     total energy              =    -447.15796743 Ry
     Harris-Foulkes estimate   =    -447.15796744 Ry
     estimated scf accuracy    <          7.4E-09 Ry

     iteration #  4     ecut=    45.00 Ry     beta= 0.70
     Davidson diagonalization with overlap
     ethr =  1.43E-11,  avg # of iterations =  1.0

     total cpu time spent up to now is     4442.5 secs

     total energy              =    -447.15796743 Ry
     Harris-Foulkes estimate   =    -447.15796743 Ry
     estimated scf accuracy    <          3.4E-09 Ry

     iteration #  5     ecut=    45.00 Ry     beta= 0.70
     Davidson diagonalization with overlap
     ethr =  6.63E-12,  avg # of iterations =  2.0

     total cpu time spent up to now is     4488.3 secs

     total energy              =    -447.15796743 Ry
     Harris-Foulkes estimate   =    -447.15796743 Ry
     estimated scf accuracy    <          1.3E-11 Ry

     iteration #  6     ecut=    45.00 Ry     beta= 0.70
     Davidson diagonalization with overlap
     ethr =  1.00E-13,  avg # of iterations =  2.0

     total cpu time spent up to now is     4526.9 secs

     total energy              =    -447.15796743 Ry
     Harris-Foulkes estimate   =    -447.15796743 Ry
     estimated scf accuracy    <          1.3E-12 Ry

     iteration #  7     ecut=    45.00 Ry     beta= 0.70
     Davidson diagonalization with overlap
     ethr =  1.00E-13,  avg # of iterations =  1.0

     total cpu time spent up to now is     4559.7 secs

     End of self-consistent calculation

     Number of k-points >= 100: set verbosity='high' to print the bands.

     highest occupied level (ev):    12.3459

!    total energy              =    -447.15796743 Ry
     Harris-Foulkes estimate   =    -447.15796743 Ry
     estimated scf accuracy    <          4.9E-13 Ry

     The total energy is the sum of the following terms:

     one-electron contribution =     -90.65139037 Ry
     hartree contribution      =      91.04558340 Ry
     xc contribution           =    -123.02405323 Ry
     ewald contribution        =    -324.52810723 Ry

     convergence has been achieved in   7 iterations

     Forces acting on atoms (cartesian axes, Ry/au):

     atom    1 type  1   force =    -0.00001910   -0.00001910    0.00000000
     atom    2 type  1   force =    -0.00002151   -0.00002151    0.00000000
     atom    3 type  2   force =     0.00003275    0.00003391   -0.00000000
     atom    4 type  2   force =     0.00003391    0.00003275    0.00000000
     atom    5 type  2   force =    -0.00001362   -0.00001362    0.00000000
     atom    6 type  2   force =    -0.00001245   -0.00001245    0.00000000

     Total force =     0.000082     Total SCF correction =     0.000001


     Computing stress (Cartesian axis) and pressure

          total   stress  (Ry/bohr**3)                   (kbar)     P=    0.10
   0.00000065   0.00000040   0.00000000          0.10      0.06      0.00
   0.00000040   0.00000065   0.00000000          0.06      0.10      0.00
  -0.00000000   0.00000000   0.00000074         -0.00      0.00      0.11


     bfgs converged in   9 scf cycles and   8 bfgs steps
     (criteria: energy <  1.0E-10 Ry, force <  1.0E-09Ry/Bohr, cell <  5.0E-01kbar)

     End of BFGS Geometry Optimization

     Final enthalpy =    -447.1579674332 Ry
Begin final coordinates
     new unit-cell volume =    413.42187 a.u.^3 (    61.26280 Ang^3 )
     density =      8.16993 g/cm^3

CELL_PARAMETERS (alat=  9.11000000)
   0.929025958   0.000000000   0.000000000
   0.000000000   0.929025958   0.000000000
   0.000000000   0.000000000   0.633552517

ATOMIC_POSITIONS (crystal)
Sn      -0.000243323  -0.000243323   0.000000000
Sn       0.499778653   0.499778653   0.500000000
O        0.803187546   0.195809562   0.500000000
O        0.195809562   0.803187546   0.500000000
O        0.303421518   0.303421518   0.000000000
O        0.696046044   0.696046044   0.000000000
End final coordinates



     A final scf calculation at the relaxed structure.
     The G-vectors are recalculated for the final unit cell
     Results may differ from those at the preceding step.
 
     Parallelization info
     --------------------
     sticks:   dense  smooth     PW     G-vecs:    dense   smooth      PW
     Min         516     516    162                 8440     8440    1440
     Max         517     517    163                 8441     8441    1441
     Sum        1033    1033    325                16881    16881    2881
 


     bravais-lattice index     =            6
     lattice parameter (alat)  =       9.1100  a.u.
     unit-cell volume          =     413.4219 (a.u.)^3
     number of atoms/cell      =            6
     number of atomic types    =            2
     number of electrons       =        52.00
     number of Kohn-Sham states=           26
     kinetic-energy cutoff     =      45.0000  Ry
     charge density cutoff     =     180.0000  Ry
     convergence threshold     =      7.2E-13
     mixing beta               =       0.7000
     number of iterations used =            8  plain     mixing
     Exchange-correlation      = PBE ( 1  4  3  4 0 0)

     celldm(1)=   9.110000  celldm(2)=   0.000000  celldm(3)=   0.670000
     celldm(4)=   0.000000  celldm(5)=   0.000000  celldm(6)=   0.000000

     crystal axes: (cart. coord. in units of alat)
               a(1) = (   0.929026   0.000000   0.000000 )  
               a(2) = (   0.000000   0.929026   0.000000 )  
               a(3) = (   0.000000   0.000000   0.633553 )  

     reciprocal axes: (cart. coord. in units 2 pi/alat)
               b(1) = (  1.076396  0.000000  0.000000 )  
               b(2) = (  0.000000  1.076396  0.000000 )  
               b(3) = (  0.000000  0.000000  1.578401 )  


     PseudoPot. # 1 for Sn read from file:
     ../../Pseudo_potentials/Sn_PBE.upf
     MD5 check sum: 78e6386ae56e929f0568ae8bf606a80c
     Pseudo is Norm-conserving + core correction, Zval = 14.0
     Generated using ONCVPSP code by D. R. Hamann
     Using radial grid of 1628 points,  6 beta functions with: 
                l(1) =   0
                l(2) =   0
                l(3) =   1
                l(4) =   1
                l(5) =   2
                l(6) =   2

     PseudoPot. # 2 for O  read from file:
     ../../Pseudo_potentials/O_PBE.upf
     MD5 check sum: 3e3f909f7470e8921608ab6b1f57bbae
     Pseudo is Norm-conserving + core correction, Zval =  6.0
     Generated using ONCVPSP code by D. R. Hamann
     Using radial grid of  936 points,  5 beta functions with: 
                l(1) =   0
                l(2) =   0
                l(3) =   1
                l(4) =   1
                l(5) =   2

     atomic species   valence    mass     pseudopotential
        Sn            14.00   118.71000     Sn( 1.00)
        O              6.00    15.99900     O ( 1.00)

      4 Sym. Ops. (no inversion) found



   Cartesian axes

     site n.     atom                  positions (alat units)
         1           Sn  tau(   1) = (  -0.0002261  -0.0002261   0.0000000  )
         2           Sn  tau(   2) = (   0.4643073   0.4643073   0.3167763  )
         3           O   tau(   3) = (   0.7461821   0.1819122   0.3167763  )
         4           O   tau(   4) = (   0.1819122   0.7461821   0.3167763  )
         5           O   tau(   5) = (   0.2818865   0.2818865   0.0000000  )
         6           O   tau(   6) = (   0.6466448   0.6466448   0.0000000  )

     number of k points=   301

     Number of k-points >= 100: set verbosity='high' to print them.

     Dense  grid:    16881 G-vectors     FFT dimensions: (  40,  40,  25)

     Estimated max dynamical RAM per process >     143.05 MB

     Estimated total dynamical RAM >     286.09 MB

     Check: negative/imaginary core charge=   -0.000316    0.000000

     Initial potential from superposition of free atoms

     starting charge   51.99690, renormalised to   52.00000
     Starting wfc are   34 randomized atomic wfcs

     Writing output data file SnO2.save

     total cpu time spent up to now is     4590.8 secs

     Self-consistent Calculation

     iteration #  1     ecut=    45.00 Ry     beta= 0.70
     Davidson diagonalization with overlap
     ethr =  1.00E-06,  avg # of iterations =  5.7

     total cpu time spent up to now is     4663.2 secs

     total energy              =    -446.03242664 Ry
     Harris-Foulkes estimate   =    -446.96227941 Ry
     estimated scf accuracy    <       1.32579798 Ry

     iteration #  2     ecut=    45.00 Ry     beta= 0.70
     Davidson diagonalization with overlap
     ethr =  2.55E-03,  avg # of iterations =  3.0

     total cpu time spent up to now is     4702.0 secs

     total energy              =    -446.38866825 Ry
     Harris-Foulkes estimate   =    -446.78493179 Ry
     estimated scf accuracy    <       0.73802481 Ry

     iteration #  3     ecut=    45.00 Ry     beta= 0.70
     Davidson diagonalization with overlap
     ethr =  1.42E-03,  avg # of iterations =  2.9

     total cpu time spent up to now is     4740.7 secs

     total energy              =    -446.54586107 Ry
     Harris-Foulkes estimate   =    -446.54638714 Ry
     estimated scf accuracy    <       0.00555246 Ry

     iteration #  4     ecut=    45.00 Ry     beta= 0.70
     Davidson diagonalization with overlap
     ethr =  1.07E-05,  avg # of iterations =  2.5

     total cpu time spent up to now is     4779.6 secs

     total energy              =    -446.54704189 Ry
     Harris-Foulkes estimate   =    -446.54712791 Ry
     estimated scf accuracy    <       0.00016142 Ry

     iteration #  5     ecut=    45.00 Ry     beta= 0.70
     Davidson diagonalization with overlap
     ethr =  3.10E-07,  avg # of iterations =  2.6

     total cpu time spent up to now is     4820.6 secs

     total energy              =    -446.54706934 Ry
     Harris-Foulkes estimate   =    -446.54707119 Ry
     estimated scf accuracy    <       0.00000736 Ry

     iteration #  6     ecut=    45.00 Ry     beta= 0.70
     Davidson diagonalization with overlap
     ethr =  1.42E-08,  avg # of iterations =  2.0

     total cpu time spent up to now is     4860.2 secs

     total energy              =    -446.54707101 Ry
     Harris-Foulkes estimate   =    -446.54707120 Ry
     estimated scf accuracy    <       0.00000052 Ry

     iteration #  7     ecut=    45.00 Ry     beta= 0.70
     Davidson diagonalization with overlap
     ethr =  9.93E-10,  avg # of iterations =  2.2

     total cpu time spent up to now is     4900.5 secs

     total energy              =    -446.54707105 Ry
     Harris-Foulkes estimate   =    -446.54707111 Ry
     estimated scf accuracy    <       0.00000012 Ry

     iteration #  8     ecut=    45.00 Ry     beta= 0.70
     Davidson diagonalization with overlap
     ethr =  2.29E-10,  avg # of iterations =  2.4

     total cpu time spent up to now is     4939.3 secs

     total energy              =    -446.54707107 Ry
     Harris-Foulkes estimate   =    -446.54707107 Ry
     estimated scf accuracy    <       0.00000001 Ry

     iteration #  9     ecut=    45.00 Ry     beta= 0.70
     Davidson diagonalization with overlap
     ethr =  2.05E-11,  avg # of iterations =  2.2

     total cpu time spent up to now is     4980.1 secs

     total energy              =    -446.54707107 Ry
     Harris-Foulkes estimate   =    -446.54707107 Ry
     estimated scf accuracy    <          1.4E-10 Ry

     iteration # 10     ecut=    45.00 Ry     beta= 0.70
     Davidson diagonalization with overlap
     ethr =  2.72E-13,  avg # of iterations =  3.0

     total cpu time spent up to now is     5025.5 secs

     total energy              =    -446.54707107 Ry
     Harris-Foulkes estimate   =    -446.54707107 Ry
     estimated scf accuracy    <          5.7E-11 Ry

     iteration # 11     ecut=    45.00 Ry     beta= 0.70
     Davidson diagonalization with overlap
     ethr =  1.09E-13,  avg # of iterations =  3.0

     total cpu time spent up to now is     5063.3 secs

     total energy              =    -446.54707107 Ry
     Harris-Foulkes estimate   =    -446.54707107 Ry
     estimated scf accuracy    <          6.7E-12 Ry

     iteration # 12     ecut=    45.00 Ry     beta= 0.70
     Davidson diagonalization with overlap
     ethr =  1.00E-13,  avg # of iterations =  1.0

     total cpu time spent up to now is     5092.4 secs

     End of self-consistent calculation

     Number of k-points >= 100: set verbosity='high' to print the bands.

     highest occupied level (ev):    12.4294

!    total energy              =    -446.54707107 Ry
     Harris-Foulkes estimate   =    -446.54707107 Ry
     estimated scf accuracy    <          6.0E-13 Ry

     The total energy is the sum of the following terms:

     one-electron contribution =     -89.59925261 Ry
     hartree contribution      =      90.38134848 Ry
     xc contribution           =    -122.80105969 Ry
     ewald contribution        =    -324.52810725 Ry

     convergence has been achieved in  12 iterations

     Forces acting on atoms (cartesian axes, Ry/au):

     atom    1 type  1   force =    -0.00004327   -0.00004327    0.00000000
     atom    2 type  1   force =    -0.00003611   -0.00003611    0.00000000
     atom    3 type  2   force =     0.00568439   -0.00539339   -0.00000000
     atom    4 type  2   force =    -0.00539339    0.00568439    0.00000000
     atom    5 type  2   force =     0.00528522    0.00528522    0.00000000
     atom    6 type  2   force =    -0.00549685   -0.00549685    0.00000000

     Total force =     0.015463     Total SCF correction =     0.000001


     Computing stress (Cartesian axis) and pressure

          total   stress  (Ry/bohr**3)                   (kbar)     P=-1041.13
  -0.00730339   0.00000179   0.00000000      -1074.37      0.26      0.00
   0.00000179  -0.00730339  -0.00000000          0.26  -1074.37     -0.00
   0.00000000  -0.00000000  -0.00662562          0.00     -0.00   -974.66


     Writing output data file SnO2.save
 
     init_run     :     30.96s CPU     31.65s WALL (       2 calls)
     electrons    :   4835.44s CPU   4900.81s WALL (      10 calls)
     update_pot   :      8.70s CPU      8.75s WALL (       8 calls)
     forces       :     37.02s CPU     37.40s WALL (      10 calls)
     stress       :    123.01s CPU    123.88s WALL (      10 calls)

     Called by init_run:
     wfcinit      :     29.72s CPU     30.38s WALL (       2 calls)
     potinit      :      0.38s CPU      0.39s WALL (       2 calls)
     hinit0       :      0.75s CPU      0.77s WALL (       2 calls)

     Called by electrons:
     c_bands      :   4299.19s CPU   4356.97s WALL (     109 calls)
     sum_band     :    533.88s CPU    541.03s WALL (     109 calls)
     v_of_rho     :      2.14s CPU      2.16s WALL (     115 calls)
     mix_rho      :      0.35s CPU      0.35s WALL (     109 calls)

     Called by c_bands:
     init_us_2    :     85.72s CPU     89.64s WALL (   72240 calls)
     cegterg      :   3868.24s CPU   3922.26s WALL (   32809 calls)

     Called by sum_band:

     Called by *egterg:
     h_psi        :   3166.67s CPU   3220.31s WALL (  118433 calls)
     g_psi        :     48.50s CPU     49.16s WALL (   85022 calls)
     cdiaghg      :    235.73s CPU    231.76s WALL (  114219 calls)

     Called by h_psi:
     h_psi:pot    :   3153.66s CPU   3206.35s WALL (  118433 calls)
     h_psi:calbec :    223.17s CPU    183.82s WALL (  118433 calls)
     vloc_psi     :   2804.59s CPU   2845.23s WALL (  118433 calls)
     add_vuspsi   :    125.65s CPU    176.79s WALL (  118433 calls)

     General routines
     calbec       :    256.22s CPU    211.25s WALL (  133483 calls)
     fft          :      1.23s CPU      1.24s WALL (    1412 calls)
     ffts         :      0.12s CPU      0.10s WALL (     109 calls)
     fftw         :   3149.67s CPU   3088.61s WALL ( 5783602 calls)
 
     Parallel routines
     fft_scatt_xy :    124.72s CPU    254.39s WALL ( 5785123 calls)
     fft_scatt_yz :   1490.92s CPU    329.94s WALL ( 5785123 calls)
 
     PWSCF        :     1h23m CPU        1h25m WALL

 
   This run was terminated on:  14: 7:23   9Apr2018            

=------------------------------------------------------------------------------=
   JOB DONE.
=------------------------------------------------------------------------------=
