
     Program PWSCF v.6.2.2 starts on  8Apr2018 at 13:41:50 

     This program is part of the open-source Quantum ESPRESSO suite
     for quantum simulation of materials; please cite
         "P. Giannozzi et al., J. Phys.:Condens. Matter 21 395502 (2009);
         "P. Giannozzi et al., J. Phys.:Condens. Matter 29 465901 (2017);
          URL http://www.quantum-espresso.org", 
     in publications or presentations arising from this work. More details at
     http://www.quantum-espresso.org/quote

     Parallel version (MPI), running on     2 processors

     MPI processes distributed on     1 nodes
     R & G space division:  proc/nbgrp/npool/nimage =       2
     Reading input from Conv_acell-ecut.in

     Current dimensions of program PWSCF are:
     Max number of different atomic species (ntypx) = 10
     Max number of k-points (npk) =  40000
     Max angular momentum in pseudopotentials (lmaxx) =  3

     Subspace diagonalization in iterative solution of the eigenvalue problem:
     a serial algorithm will be used

 
     Parallelization info
     --------------------
     sticks:   dense  smooth     PW     G-vecs:    dense   smooth      PW
     Min         240     240     80                 2612     2612     508
     Max         241     241     81                 2613     2613     509
     Sum         481     481    161                 5225     5225    1017
 


     bravais-lattice index     =            6
     lattice parameter (alat)  =       9.1100  a.u.
     unit-cell volume          =     506.5589 (a.u.)^3
     number of atoms/cell      =            6
     number of atomic types    =            2
     number of electrons       =        52.00
     number of Kohn-Sham states=           26
     kinetic-energy cutoff     =      18.0000  Ry
     charge density cutoff     =      72.0000  Ry
     convergence threshold     =      1.0E-12
     mixing beta               =       0.7000
     number of iterations used =            8  plain     mixing
     Exchange-correlation      = PBE ( 1  4  3  4 0 0)
     nstep                     =           50


     celldm(1)=   9.110000  celldm(2)=   0.000000  celldm(3)=   0.670000
     celldm(4)=   0.000000  celldm(5)=   0.000000  celldm(6)=   0.000000

     crystal axes: (cart. coord. in units of alat)
               a(1) = (   1.000000   0.000000   0.000000 )  
               a(2) = (   0.000000   1.000000   0.000000 )  
               a(3) = (   0.000000   0.000000   0.670000 )  

     reciprocal axes: (cart. coord. in units 2 pi/alat)
               b(1) = (  1.000000  0.000000  0.000000 )  
               b(2) = (  0.000000  1.000000  0.000000 )  
               b(3) = (  0.000000  0.000000  1.492537 )  


     PseudoPot. # 1 for Sn read from file:
     ../../Pseudo_potentials/Sn_PBE.upf
     MD5 check sum: 78e6386ae56e929f0568ae8bf606a80c
     Pseudo is Norm-conserving + core correction, Zval = 14.0
     Generated using ONCVPSP code by D. R. Hamann
     Using radial grid of 1628 points,  6 beta functions with: 
                l(1) =   0
                l(2) =   0
                l(3) =   1
                l(4) =   1
                l(5) =   2
                l(6) =   2

     PseudoPot. # 2 for O  read from file:
     ../../Pseudo_potentials/O_PBE.upf
     MD5 check sum: 3e3f909f7470e8921608ab6b1f57bbae
     Pseudo is Norm-conserving + core correction, Zval =  6.0
     Generated using ONCVPSP code by D. R. Hamann
     Using radial grid of  936 points,  5 beta functions with: 
                l(1) =   0
                l(2) =   0
                l(3) =   1
                l(4) =   1
                l(5) =   2

     atomic species   valence    mass     pseudopotential
        Sn            14.00   118.71000     Sn( 1.00)
        O              6.00    15.99900     O ( 1.00)

      4 Sym. Ops. (no inversion) found



   Cartesian axes

     site n.     atom                  positions (alat units)
         1           Sn  tau(   1) = (   0.0000000   0.0000000   0.0000000  )
         2           Sn  tau(   2) = (   0.5000000   0.5000000   0.3350000  )
         3           O   tau(   3) = (   0.8060000   0.1930000   0.3350000  )
         4           O   tau(   4) = (   0.1930000   0.8060000   0.3350000  )
         5           O   tau(   5) = (   0.3060000   0.3060000   0.0000000  )
         6           O   tau(   6) = (   0.6930000   0.6930000   0.0000000  )

     number of k points=   301

     Number of k-points >= 100: set verbosity='high' to print them.

     Dense  grid:     5225 G-vectors     FFT dimensions: (  25,  25,  18)

     Estimated max dynamical RAM per process >      46.57 MB

     Estimated total dynamical RAM >      93.13 MB

     Check: negative/imaginary core charge=   -0.004326    0.000000

     Initial potential from superposition of free atoms
     Check: negative starting charge=   -0.019835

     starting charge   51.99690, renormalised to   52.00000

     negative rho (up, down):  1.984E-02 0.000E+00
     Starting wfc are   34 randomized atomic wfcs

     total cpu time spent up to now is        5.9 secs

     Self-consistent Calculation

     iteration #  1     ecut=    18.00 Ry     beta= 0.70
     Davidson diagonalization with overlap
     ethr =  1.00E-02,  avg # of iterations =  2.0

     negative rho (up, down):  5.928E-03 0.000E+00

     total cpu time spent up to now is       21.5 secs

     total energy              =    -408.34716949 Ry
     Harris-Foulkes estimate   =    -418.94976654 Ry
     estimated scf accuracy    <      14.04932356 Ry

     iteration #  2     ecut=    18.00 Ry     beta= 0.70
     Davidson diagonalization with overlap
     ethr =  1.00E-02,  avg # of iterations =  2.8

     negative rho (up, down):  1.827E-03 0.000E+00

     total cpu time spent up to now is       38.9 secs

     total energy              =    -411.02375681 Ry
     Harris-Foulkes estimate   =    -411.59506876 Ry
     estimated scf accuracy    <       0.99136984 Ry

     iteration #  3     ecut=    18.00 Ry     beta= 0.70
     Davidson diagonalization with overlap
     ethr =  1.91E-03,  avg # of iterations =  3.1

     negative rho (up, down):  3.886E-04 0.000E+00

     total cpu time spent up to now is       54.7 secs

     total energy              =    -411.17868124 Ry
     Harris-Foulkes estimate   =    -411.26936177 Ry
     estimated scf accuracy    <       0.16492869 Ry

     iteration #  4     ecut=    18.00 Ry     beta= 0.70
     Davidson diagonalization with overlap
     ethr =  3.17E-04,  avg # of iterations =  3.0

     total cpu time spent up to now is       70.9 secs

     total energy              =    -411.21467621 Ry
     Harris-Foulkes estimate   =    -411.22615215 Ry
     estimated scf accuracy    <       0.02188133 Ry

     iteration #  5     ecut=    18.00 Ry     beta= 0.70
     Davidson diagonalization with overlap
     ethr =  4.21E-05,  avg # of iterations =  2.5

     total cpu time spent up to now is       85.8 secs

     total energy              =    -411.22050813 Ry
     Harris-Foulkes estimate   =    -411.22076918 Ry
     estimated scf accuracy    <       0.00060602 Ry

     iteration #  6     ecut=    18.00 Ry     beta= 0.70
     Davidson diagonalization with overlap
     ethr =  1.17E-06,  avg # of iterations =  4.0

     total cpu time spent up to now is      103.7 secs

     total energy              =    -411.22136462 Ry
     Harris-Foulkes estimate   =    -411.22165368 Ry
     estimated scf accuracy    <       0.00071250 Ry

     iteration #  7     ecut=    18.00 Ry     beta= 0.70
     Davidson diagonalization with overlap
     ethr =  1.17E-06,  avg # of iterations =  3.2

     total cpu time spent up to now is      119.0 secs

     total energy              =    -411.22148814 Ry
     Harris-Foulkes estimate   =    -411.22150124 Ry
     estimated scf accuracy    <       0.00002628 Ry

     iteration #  8     ecut=    18.00 Ry     beta= 0.70
     Davidson diagonalization with overlap
     ethr =  5.05E-08,  avg # of iterations =  3.4

     total cpu time spent up to now is      136.0 secs

     total energy              =    -411.22148917 Ry
     Harris-Foulkes estimate   =    -411.22149751 Ry
     estimated scf accuracy    <       0.00001731 Ry

     iteration #  9     ecut=    18.00 Ry     beta= 0.70
     Davidson diagonalization with overlap
     ethr =  3.33E-08,  avg # of iterations =  3.4

     total cpu time spent up to now is      151.9 secs

     total energy              =    -411.22149331 Ry
     Harris-Foulkes estimate   =    -411.22149502 Ry
     estimated scf accuracy    <       0.00000464 Ry

     iteration # 10     ecut=    18.00 Ry     beta= 0.70
     Davidson diagonalization with overlap
     ethr =  8.92E-09,  avg # of iterations =  3.0

     total cpu time spent up to now is      166.4 secs

     total energy              =    -411.22149405 Ry
     Harris-Foulkes estimate   =    -411.22149406 Ry
     estimated scf accuracy    <       0.00000002 Ry

     iteration # 11     ecut=    18.00 Ry     beta= 0.70
     Davidson diagonalization with overlap
     ethr =  4.01E-11,  avg # of iterations =  3.7

     total cpu time spent up to now is      186.9 secs

     total energy              =    -411.22149407 Ry
     Harris-Foulkes estimate   =    -411.22149407 Ry
     estimated scf accuracy    <          4.7E-09 Ry

     iteration # 12     ecut=    18.00 Ry     beta= 0.70
     Davidson diagonalization with overlap
     ethr =  9.00E-12,  avg # of iterations =  2.9

     total cpu time spent up to now is      201.7 secs

     total energy              =    -411.22149407 Ry
     Harris-Foulkes estimate   =    -411.22149407 Ry
     estimated scf accuracy    <          4.0E-10 Ry

     iteration # 13     ecut=    18.00 Ry     beta= 0.70
     Davidson diagonalization with overlap
     ethr =  7.77E-13,  avg # of iterations =  3.4

     total cpu time spent up to now is      218.2 secs

     total energy              =    -411.22149407 Ry
     Harris-Foulkes estimate   =    -411.22149407 Ry
     estimated scf accuracy    <          4.2E-11 Ry

     iteration # 14     ecut=    18.00 Ry     beta= 0.70
     Davidson diagonalization with overlap
     ethr =  1.00E-13,  avg # of iterations =  2.0

     total cpu time spent up to now is      232.4 secs

     total energy              =    -411.22149407 Ry
     Harris-Foulkes estimate   =    -411.22149407 Ry
     estimated scf accuracy    <          1.1E-11 Ry

     iteration # 15     ecut=    18.00 Ry     beta= 0.70
     Davidson diagonalization with overlap
     ethr =  1.00E-13,  avg # of iterations =  1.8

     total cpu time spent up to now is      244.0 secs

     End of self-consistent calculation

     Number of k-points >= 100: set verbosity='high' to print the bands.

     highest occupied level (ev):    10.9411

!    total energy              =    -411.22149407 Ry
     Harris-Foulkes estimate   =    -411.22149407 Ry
     estimated scf accuracy    <          2.2E-13 Ry

     The total energy is the sum of the following terms:

     one-electron contribution =     -68.54435045 Ry
     hartree contribution      =      71.81602078 Ry
     xc contribution           =    -112.01182859 Ry
     ewald contribution        =    -302.48133581 Ry

     convergence has been achieved in  15 iterations

     Forces acting on atoms (cartesian axes, Ry/au):

     atom    1 type  1   force =    -0.00311653   -0.00311653    0.00000000
     atom    2 type  1   force =    -0.00312087   -0.00312087    0.00000000
     atom    3 type  2   force =    -0.02105565    0.01789148    0.00000000
     atom    4 type  2   force =     0.01789148   -0.02105565    0.00000000
     atom    5 type  2   force =    -0.02158969   -0.02158969    0.00000000
     atom    6 type  2   force =     0.03099125    0.03099125    0.00000000

     Total force =     0.066475     Total SCF correction =     0.000001


     Computing stress (Cartesian axis) and pressure

          total   stress  (Ry/bohr**3)                   (kbar)     P=********
  -0.08336132  -0.00000530  -0.00000000     -12262.87     -0.78     -0.00
  -0.00000530  -0.08336132   0.00000000         -0.78 -12262.87      0.00
   0.00000000   0.00000000  -0.08155845          0.00      0.00 -11997.66


     BFGS Geometry Optimization

     number of scf cycles    =   1
     number of bfgs steps    =   0

     enthalpy new            =    -411.2214940697 Ry

     new trust radius        =       0.5000000000 bohr
     new conv_thr            =            1.0E-12 Ry

     new unit-cell volume =    356.77475 a.u.^3 (    52.86856 Ang^3 )
     density =      9.46712 g/cm^3

CELL_PARAMETERS (alat=  9.11000000)
   0.888922769   0.000000000   0.000000000
   0.000000000   0.888922769   0.000000000
   0.000000000   0.000000000   0.597187793

ATOMIC_POSITIONS (crystal)
Sn      -0.000018234  -0.000018234   0.000000000
Sn       0.499981741   0.499981741   0.500000000
O        0.805876811   0.193104676   0.500000000
O        0.193104676   0.805876811   0.500000000
O        0.305873687   0.305873687   0.000000000
O        0.693181318   0.693181318   0.000000000



     Writing output data file SnO2.save
     Check: negative starting charge=   -0.019835
     NEW-OLD atomic charge density approx. for the potential

     Check: negative/imaginary core charge=   -0.003485    0.000000
     Check: negative starting charge=   -0.008000

     negative rho (up, down):  2.895E+00 0.000E+00
     extrapolated charge   30.17023, renormalised to   52.00000

     total cpu time spent up to now is      250.2 secs

     Self-consistent Calculation

     iteration #  1     ecut=    18.00 Ry     beta= 0.70
     Davidson diagonalization with overlap
     ethr =  1.00E-06,  avg # of iterations = 11.8

     total cpu time spent up to now is      298.6 secs

     total energy              =    -394.45853366 Ry
     Harris-Foulkes estimate   =    -463.97476161 Ry
     estimated scf accuracy    <      70.84098343 Ry

     iteration #  2     ecut=    18.00 Ry     beta= 0.70
     Davidson diagonalization with overlap
     ethr =  1.00E-02,  avg # of iterations =  5.3

     total cpu time spent up to now is      323.8 secs

     total energy              =    -422.24506830 Ry
     Harris-Foulkes estimate   =    -430.53687150 Ry
     estimated scf accuracy    <      11.74874040 Ry

     iteration #  3     ecut=    18.00 Ry     beta= 0.70
     Davidson diagonalization with overlap
     ethr =  1.00E-02,  avg # of iterations =  2.7

     total cpu time spent up to now is      341.0 secs

     total energy              =    -424.59035923 Ry
     Harris-Foulkes estimate   =    -424.77488618 Ry
     estimated scf accuracy    <       0.34764179 Ry

     iteration #  4     ecut=    18.00 Ry     beta= 0.70
     Davidson diagonalization with overlap
     ethr =  6.69E-04,  avg # of iterations =  2.0

     total cpu time spent up to now is      355.1 secs

     total energy              =    -424.59442119 Ry
     Harris-Foulkes estimate   =    -424.63566732 Ry
     estimated scf accuracy    <       0.06508895 Ry

     iteration #  5     ecut=    18.00 Ry     beta= 0.70
     Davidson diagonalization with overlap
     ethr =  1.25E-04,  avg # of iterations =  2.2

     total cpu time spent up to now is      370.5 secs

     total energy              =    -424.60306305 Ry
     Harris-Foulkes estimate   =    -424.60911633 Ry
     estimated scf accuracy    <       0.00989063 Ry

     iteration #  6     ecut=    18.00 Ry     beta= 0.70
     Davidson diagonalization with overlap
     ethr =  1.90E-05,  avg # of iterations =  3.0

     total cpu time spent up to now is      387.1 secs

     total energy              =    -424.60530145 Ry
     Harris-Foulkes estimate   =    -424.60619278 Ry
     estimated scf accuracy    <       0.00174842 Ry

     iteration #  7     ecut=    18.00 Ry     beta= 0.70
     Davidson diagonalization with overlap
     ethr =  3.36E-06,  avg # of iterations =  2.4

     total cpu time spent up to now is      401.7 secs

     total energy              =    -424.60566095 Ry
     Harris-Foulkes estimate   =    -424.60566411 Ry
     estimated scf accuracy    <       0.00000560 Ry

     iteration #  8     ecut=    18.00 Ry     beta= 0.70
     Davidson diagonalization with overlap
     ethr =  1.08E-08,  avg # of iterations =  3.6

     total cpu time spent up to now is      421.8 secs

     total energy              =    -424.60566602 Ry
     Harris-Foulkes estimate   =    -424.60566687 Ry
     estimated scf accuracy    <       0.00000164 Ry

     iteration #  9     ecut=    18.00 Ry     beta= 0.70
     Davidson diagonalization with overlap
     ethr =  3.15E-09,  avg # of iterations =  3.0

     total cpu time spent up to now is      436.8 secs

     total energy              =    -424.60566629 Ry
     Harris-Foulkes estimate   =    -424.60566640 Ry
     estimated scf accuracy    <       0.00000020 Ry

     iteration # 10     ecut=    18.00 Ry     beta= 0.70
     Davidson diagonalization with overlap
     ethr =  3.88E-10,  avg # of iterations =  2.4

     total cpu time spent up to now is      452.7 secs

     total energy              =    -424.60566634 Ry
     Harris-Foulkes estimate   =    -424.60566634 Ry
     estimated scf accuracy    <       0.00000001 Ry

     iteration # 11     ecut=    18.00 Ry     beta= 0.70
     Davidson diagonalization with overlap
     ethr =  2.39E-11,  avg # of iterations =  2.5

     total cpu time spent up to now is      468.9 secs

     total energy              =    -424.60566634 Ry
     Harris-Foulkes estimate   =    -424.60566634 Ry
     estimated scf accuracy    <          1.0E-09 Ry

     iteration # 12     ecut=    18.00 Ry     beta= 0.70
     Davidson diagonalization with overlap
     ethr =  1.93E-12,  avg # of iterations =  2.8

     total cpu time spent up to now is      484.2 secs

     total energy              =    -424.60566634 Ry
     Harris-Foulkes estimate   =    -424.60566634 Ry
     estimated scf accuracy    <          2.6E-11 Ry

     iteration # 13     ecut=    18.00 Ry     beta= 0.70
     Davidson diagonalization with overlap
     ethr =  1.00E-13,  avg # of iterations =  2.0

     total cpu time spent up to now is      498.7 secs

     total energy              =    -424.60566634 Ry
     Harris-Foulkes estimate   =    -424.60566634 Ry
     estimated scf accuracy    <          2.6E-12 Ry

     iteration # 14     ecut=    18.00 Ry     beta= 0.70
     Davidson diagonalization with overlap
     ethr =  1.00E-13,  avg # of iterations =  1.0

     total cpu time spent up to now is      509.6 secs

     End of self-consistent calculation

     Number of k-points >= 100: set verbosity='high' to print the bands.

     highest occupied level (ev):    17.2496

!    total energy              =    -424.60566634 Ry
     Harris-Foulkes estimate   =    -424.60566634 Ry
     estimated scf accuracy    <          6.5E-14 Ry

     The total energy is the sum of the following terms:

     one-electron contribution =     -34.80190905 Ry
     hartree contribution      =      67.81902161 Ry
     xc contribution           =    -117.53731922 Ry
     ewald contribution        =    -340.08545969 Ry

     convergence has been achieved in  14 iterations

     Forces acting on atoms (cartesian axes, Ry/au):

     atom    1 type  1   force =    -0.00604465   -0.00604465    0.00000000
     atom    2 type  1   force =    -0.00510482   -0.00510482    0.00000000
     atom    3 type  2   force =    -0.08915468    0.08584536    0.00000000
     atom    4 type  2   force =     0.08584536   -0.08915468    0.00000000
     atom    5 type  2   force =    -0.07135971   -0.07135971    0.00000000
     atom    6 type  2   force =     0.08581849    0.08581849    0.00000000

     Total force =     0.235956     Total SCF correction =     0.000001


     Computing stress (Cartesian axis) and pressure

          total   stress  (Ry/bohr**3)                   (kbar)     P=********
  -0.09428814   0.00002845  -0.00000000     -13870.26      4.19     -0.00
   0.00002845  -0.09428814   0.00000000          4.19 -13870.26      0.00
  -0.00000000   0.00000000  -0.08974062         -0.00      0.00 -13201.30


     number of scf cycles    =   2
     number of bfgs steps    =   1

     enthalpy old            =    -411.2214940697 Ry
     enthalpy new            =    -424.6056663399 Ry

     CASE: enthalpy_new < enthalpy_old

     new trust radius        =       0.7080751008 bohr
     new conv_thr            =            1.0E-12 Ry

     new unit-cell volume =    212.29225 a.u.^3 (    31.45846 Ang^3 )
     density =     15.91028 g/cm^3

CELL_PARAMETERS (alat=  9.11000000)
   0.722306921   0.000000000   0.000000000
   0.000000000   0.722306921   0.000000000
   0.000000000   0.000000000   0.538189783

ATOMIC_POSITIONS (crystal)
Sn      -0.000435299  -0.000435299   0.000000000
Sn       0.499691406   0.499691406   0.500000000
O        0.796572128   0.202365569   0.500000000
O        0.202365569   0.796572128   0.500000000
O        0.299025751   0.299025751   0.000000000
O        0.700780446   0.700780446   0.000000000



     Writing output data file SnO2.save
     Check: negative starting charge=   -0.008000
     NEW-OLD atomic charge density approx. for the potential

     Check: negative/imaginary core charge=   -0.001630    0.000000
     Check: negative starting charge=   -0.000705

     negative rho (up, down):  5.791E+00 0.000E+00
     extrapolated charge   16.61179, renormalised to   52.00000

     total cpu time spent up to now is      515.6 secs

     Self-consistent Calculation

     iteration #  1     ecut=    18.00 Ry     beta= 0.70
     Davidson diagonalization with overlap
     c_bands:  1 eigenvalues not converged
     c_bands:  1 eigenvalues not converged
     ethr =  1.00E-06,  avg # of iterations = 10.1

     negative rho (up, down):  4.190E-02 0.000E+00

     total cpu time spent up to now is      564.1 secs

     total energy              =    -398.18890940 Ry
     Harris-Foulkes estimate   =    -518.17272581 Ry
     estimated scf accuracy    <     248.14541189 Ry

     iteration #  2     ecut=    18.00 Ry     beta= 0.70
     Davidson diagonalization with overlap
     ethr =  1.00E-02,  avg # of iterations =  5.0

     total cpu time spent up to now is      589.0 secs

     total energy              =    -433.77654761 Ry
     Harris-Foulkes estimate   =    -437.37825976 Ry
     estimated scf accuracy    <       5.89686581 Ry

     iteration #  3     ecut=    18.00 Ry     beta= 0.70
     Davidson diagonalization with overlap
     ethr =  1.00E-02,  avg # of iterations =  2.1

     total cpu time spent up to now is      605.0 secs

     total energy              =    -434.77578158 Ry
     Harris-Foulkes estimate   =    -434.91475244 Ry
     estimated scf accuracy    <       0.35264847 Ry

     iteration #  4     ecut=    18.00 Ry     beta= 0.70
     Davidson diagonalization with overlap
     ethr =  6.78E-04,  avg # of iterations =  2.1

     total cpu time spent up to now is      619.6 secs

     total energy              =    -434.81955837 Ry
     Harris-Foulkes estimate   =    -434.83540113 Ry
     estimated scf accuracy    <       0.03364782 Ry

     iteration #  5     ecut=    18.00 Ry     beta= 0.70
     Davidson diagonalization with overlap
     ethr =  6.47E-05,  avg # of iterations =  3.0

     total cpu time spent up to now is      635.5 secs

     total energy              =    -434.82730875 Ry
     Harris-Foulkes estimate   =    -434.83008519 Ry
     estimated scf accuracy    <       0.00521002 Ry

     iteration #  6     ecut=    18.00 Ry     beta= 0.70
     Davidson diagonalization with overlap
     ethr =  1.00E-05,  avg # of iterations =  3.0

     total cpu time spent up to now is      651.1 secs

     total energy              =    -434.82852719 Ry
     Harris-Foulkes estimate   =    -434.82857979 Ry
     estimated scf accuracy    <       0.00014841 Ry

     iteration #  7     ecut=    18.00 Ry     beta= 0.70
     Davidson diagonalization with overlap
     ethr =  2.85E-07,  avg # of iterations =  2.6

     total cpu time spent up to now is      666.2 secs

     total energy              =    -434.82855499 Ry
     Harris-Foulkes estimate   =    -434.82855699 Ry
     estimated scf accuracy    <       0.00000513 Ry

     iteration #  8     ecut=    18.00 Ry     beta= 0.70
     Davidson diagonalization with overlap
     ethr =  9.86E-09,  avg # of iterations =  2.4

     total cpu time spent up to now is      681.7 secs

     total energy              =    -434.82855611 Ry
     Harris-Foulkes estimate   =    -434.82855635 Ry
     estimated scf accuracy    <       0.00000047 Ry

     iteration #  9     ecut=    18.00 Ry     beta= 0.70
     Davidson diagonalization with overlap
     ethr =  9.00E-10,  avg # of iterations =  2.0

     total cpu time spent up to now is      696.8 secs

     total energy              =    -434.82855621 Ry
     Harris-Foulkes estimate   =    -434.82855622 Ry
     estimated scf accuracy    <       0.00000002 Ry

     iteration # 10     ecut=    18.00 Ry     beta= 0.70
     Davidson diagonalization with overlap
     ethr =  4.36E-11,  avg # of iterations =  2.2

     total cpu time spent up to now is      712.8 secs

     total energy              =    -434.82855621 Ry
     Harris-Foulkes estimate   =    -434.82855622 Ry
     estimated scf accuracy    <          3.4E-09 Ry

     iteration # 11     ecut=    18.00 Ry     beta= 0.70
     Davidson diagonalization with overlap
     ethr =  6.55E-12,  avg # of iterations =  2.0

     total cpu time spent up to now is      728.4 secs

     total energy              =    -434.82855622 Ry
     Harris-Foulkes estimate   =    -434.82855622 Ry
     estimated scf accuracy    <          1.3E-10 Ry

     iteration # 12     ecut=    18.00 Ry     beta= 0.70
     Davidson diagonalization with overlap
     ethr =  2.50E-13,  avg # of iterations =  2.8

     total cpu time spent up to now is      744.0 secs

     total energy              =    -434.82855622 Ry
     Harris-Foulkes estimate   =    -434.82855622 Ry
     estimated scf accuracy    <          2.4E-12 Ry

     iteration # 13     ecut=    18.00 Ry     beta= 0.70
     Davidson diagonalization with overlap
     ethr =  1.00E-13,  avg # of iterations =  1.0

     total cpu time spent up to now is      754.9 secs

     End of self-consistent calculation

     Number of k-points >= 100: set verbosity='high' to print the bands.

     highest occupied level (ev):    33.9614

!    total energy              =    -434.82855622 Ry
     Harris-Foulkes estimate   =    -434.82855622 Ry
     estimated scf accuracy    <          1.4E-13 Ry

     The total energy is the sum of the following terms:

     one-electron contribution =      42.85195793 Ry
     hartree contribution      =      56.27858953 Ry
     xc contribution           =    -125.94546119 Ry
     ewald contribution        =    -408.01364249 Ry

     convergence has been achieved in  13 iterations

     Forces acting on atoms (cartesian axes, Ry/au):

     atom    1 type  1   force =     0.02107881    0.02107881    0.00000000
     atom    2 type  1   force =     0.00618833    0.00618833    0.00000000
     atom    3 type  2   force =     0.53355901   -0.53380414    0.00000000
     atom    4 type  2   force =    -0.53380414    0.53355901    0.00000000
     atom    5 type  2   force =     0.41316792    0.41316792    0.00000000
     atom    6 type  2   force =    -0.44018994   -0.44018994    0.00000000

     Total force =     1.367179     Total SCF correction =     0.000002


     Computing stress (Cartesian axis) and pressure

          total   stress  (Ry/bohr**3)                   (kbar)     P=-3116.17
  -0.00568610  -0.00075187   0.00000000       -836.45   -110.60      0.00
  -0.00075187  -0.00568610   0.00000000       -110.60   -836.45      0.00
   0.00000000   0.00000000  -0.05217761          0.00      0.00  -7675.59


     number of scf cycles    =   3
     number of bfgs steps    =   2

     enthalpy old            =    -424.6056663399 Ry
     enthalpy new            =    -434.8285562155 Ry

     CASE: enthalpy_new < enthalpy_old

     new trust radius        =       0.8000000000 bohr
     new conv_thr            =            1.0E-12 Ry

     new unit-cell volume =    176.49431 a.u.^3 (    26.15376 Ang^3 )
     density =     19.13733 g/cm^3

CELL_PARAMETERS (alat=  9.11000000)
   0.773233976   0.000000000   0.000000000
   0.000000000   0.773233976   0.000000000
   0.000000000   0.000000000   0.390439480

ATOMIC_POSITIONS (crystal)
Sn       0.000266597   0.000266597   0.000000000
Sn       0.499853620   0.499853620   0.500000000
O        0.814332455   0.184605023   0.500000000
O        0.184605023   0.814332455   0.500000000
O        0.312952423   0.312952423   0.000000000
O        0.685989882   0.685989882   0.000000000



     Writing output data file SnO2.save
     Check: negative starting charge=   -0.000705
     NEW-OLD atomic charge density approx. for the potential

     Check: negative/imaginary core charge=   -0.001422    0.000000

     negative rho (up, down):  1.590E-02 0.000E+00
     extrapolated charge   41.45359, renormalised to   52.00000

     total cpu time spent up to now is      761.1 secs

     Self-consistent Calculation

     iteration #  1     ecut=    18.00 Ry     beta= 0.70
     Davidson diagonalization with overlap
     ethr =  1.00E-06,  avg # of iterations =  7.5

     negative rho (up, down):  5.850E-04 0.000E+00

     total cpu time spent up to now is      802.9 secs

     total energy              =    -427.02915102 Ry
     Harris-Foulkes estimate   =    -438.04737199 Ry
     estimated scf accuracy    <       2.08799738 Ry

     iteration #  2     ecut=    18.00 Ry     beta= 0.70
     Davidson diagonalization with overlap
     ethr =  4.02E-03,  avg # of iterations =  3.2

     negative rho (up, down):  3.082E-04 0.000E+00

     total cpu time spent up to now is      822.2 secs

     total energy              =    -429.55428521 Ry
     Harris-Foulkes estimate   =    -430.50042875 Ry
     estimated scf accuracy    <       2.10305267 Ry

     iteration #  3     ecut=    18.00 Ry     beta= 0.70
     Davidson diagonalization with overlap
     ethr =  4.02E-03,  avg # of iterations =  2.4

     total cpu time spent up to now is      835.1 secs

     total energy              =    -429.58834332 Ry
     Harris-Foulkes estimate   =    -429.73958407 Ry
     estimated scf accuracy    <       0.26249931 Ry

     iteration #  4     ecut=    18.00 Ry     beta= 0.70
     Davidson diagonalization with overlap
     ethr =  5.05E-04,  avg # of iterations =  2.6

     total cpu time spent up to now is      851.5 secs

     total energy              =    -429.64259886 Ry
     Harris-Foulkes estimate   =    -429.64417485 Ry
     estimated scf accuracy    <       0.00273475 Ry

     iteration #  5     ecut=    18.00 Ry     beta= 0.70
     Davidson diagonalization with overlap
     ethr =  5.26E-06,  avg # of iterations =  3.0

     total cpu time spent up to now is      868.3 secs

     total energy              =    -429.64331403 Ry
     Harris-Foulkes estimate   =    -429.64350658 Ry
     estimated scf accuracy    <       0.00042104 Ry

     iteration #  6     ecut=    18.00 Ry     beta= 0.70
     Davidson diagonalization with overlap
     ethr =  8.10E-07,  avg # of iterations =  2.4

     total cpu time spent up to now is      882.7 secs

     total energy              =    -429.64334584 Ry
     Harris-Foulkes estimate   =    -429.64341357 Ry
     estimated scf accuracy    <       0.00012257 Ry

     iteration #  7     ecut=    18.00 Ry     beta= 0.70
     Davidson diagonalization with overlap
     ethr =  2.36E-07,  avg # of iterations =  2.1

     total cpu time spent up to now is      896.7 secs

     total energy              =    -429.64336010 Ry
     Harris-Foulkes estimate   =    -429.64336402 Ry
     estimated scf accuracy    <       0.00000677 Ry

     iteration #  8     ecut=    18.00 Ry     beta= 0.70
     Davidson diagonalization with overlap
     ethr =  1.30E-08,  avg # of iterations =  2.4

     total cpu time spent up to now is      912.8 secs

     total energy              =    -429.64336137 Ry
     Harris-Foulkes estimate   =    -429.64336141 Ry
     estimated scf accuracy    <       0.00000008 Ry

     iteration #  9     ecut=    18.00 Ry     beta= 0.70
     Davidson diagonalization with overlap
     ethr =  1.49E-10,  avg # of iterations =  3.0

     total cpu time spent up to now is      930.4 secs

     total energy              =    -429.64336139 Ry
     Harris-Foulkes estimate   =    -429.64336139 Ry
     estimated scf accuracy    <          6.9E-09 Ry

     iteration # 10     ecut=    18.00 Ry     beta= 0.70
     Davidson diagonalization with overlap
     ethr =  1.32E-11,  avg # of iterations =  2.1

     total cpu time spent up to now is      945.0 secs

     total energy              =    -429.64336139 Ry
     Harris-Foulkes estimate   =    -429.64336139 Ry
     estimated scf accuracy    <          1.0E-09 Ry

     iteration # 11     ecut=    18.00 Ry     beta= 0.70
     Davidson diagonalization with overlap
     ethr =  1.99E-12,  avg # of iterations =  2.1

     total cpu time spent up to now is      960.3 secs

     total energy              =    -429.64336139 Ry
     Harris-Foulkes estimate   =    -429.64336139 Ry
     estimated scf accuracy    <          3.0E-11 Ry

     iteration # 12     ecut=    18.00 Ry     beta= 0.70
     Davidson diagonalization with overlap
     ethr =  1.00E-13,  avg # of iterations =  2.1

     total cpu time spent up to now is      974.9 secs

     total energy              =    -429.64336139 Ry
     Harris-Foulkes estimate   =    -429.64336139 Ry
     estimated scf accuracy    <          1.3E-12 Ry

     iteration # 13     ecut=    18.00 Ry     beta= 0.70
     Davidson diagonalization with overlap
     ethr =  1.00E-13,  avg # of iterations =  1.0

     total cpu time spent up to now is      985.8 secs

     End of self-consistent calculation

     Number of k-points >= 100: set verbosity='high' to print the bands.

     highest occupied level (ev):    43.6760

!    total energy              =    -429.64336139 Ry
     Harris-Foulkes estimate   =    -429.64336139 Ry
     estimated scf accuracy    <          3.2E-14 Ry

     The total energy is the sum of the following terms:

     one-electron contribution =      37.83739978 Ry
     hartree contribution      =      69.67504317 Ry
     xc contribution           =    -129.48093559 Ry
     ewald contribution        =    -407.67486875 Ry

     convergence has been achieved in  13 iterations

     Forces acting on atoms (cartesian axes, Ry/au):

     atom    1 type  1   force =    -0.00217328   -0.00217328    0.00000000
     atom    2 type  1   force =    -0.02975006   -0.02975006    0.00000000
     atom    3 type  2   force =    -2.59695758    2.56900745    0.00000000
     atom    4 type  2   force =     2.56900745   -2.59695758    0.00000000
     atom    5 type  2   force =    -2.45760007   -2.45760007    0.00000000
     atom    6 type  2   force =     2.51747354    2.51747354    0.00000000

     Total force =     7.172496     Total SCF correction =     0.000001


     Computing stress (Cartesian axis) and pressure

          total   stress  (Ry/bohr**3)                   (kbar)     P=10668.08
   0.00441825  -0.00007124   0.00000000        649.95    -10.48      0.00
  -0.00007124   0.00441825  -0.00000000        -10.48    649.95     -0.00
   0.00000000   0.00000000   0.20872391          0.00      0.00  30704.34


     number of scf cycles    =   4
     number of bfgs steps    =   3

     enthalpy old            =    -434.8285562155 Ry
     enthalpy new            =    -429.6433613908 Ry

     CASE: enthalpy_new > enthalpy_old

     new trust radius        =       0.1948616166 bohr
     new conv_thr            =            1.0E-12 Ry

     new unit-cell volume =    206.52777 a.u.^3 (    30.60426 Ang^3 )
     density =     16.35436 g/cm^3

CELL_PARAMETERS (alat=  9.11000000)
   0.732176642   0.000000000   0.000000000
   0.000000000   0.732176642   0.000000000
   0.000000000   0.000000000   0.509555607

ATOMIC_POSITIONS (crystal)
Sn      -0.000299271  -0.000299271   0.000000000
Sn       0.499722843   0.499722843   0.500000000
O        0.800014099   0.198923555   0.500000000
O        0.198923555   0.800014099   0.500000000
O        0.301724756   0.301724756   0.000000000
O        0.697914018   0.697914018   0.000000000



     Writing output data file SnO2.save
     NEW-OLD atomic charge density approx. for the potential

     Check: negative/imaginary core charge=   -0.001475    0.000000
     Check: negative starting charge=   -0.000479

     negative rho (up, down):  3.425E-04 0.000E+00
     extrapolated charge   59.56144, renormalised to   52.00000

     total cpu time spent up to now is      991.8 secs

     Self-consistent Calculation

     iteration #  1     ecut=    18.00 Ry     beta= 0.70
     Davidson diagonalization with overlap
     ethr =  1.00E-06,  avg # of iterations =  9.2

     negative rho (up, down):  7.434E-05 0.000E+00

     total cpu time spent up to now is     1034.9 secs

     total energy              =    -433.42703354 Ry
     Harris-Foulkes estimate   =    -432.37214873 Ry
     estimated scf accuracy    <       1.29760116 Ry

     iteration #  2     ecut=    18.00 Ry     beta= 0.70
     Davidson diagonalization with overlap
     ethr =  2.50E-03,  avg # of iterations =  3.3

     negative rho (up, down):  3.174E-05 0.000E+00

     total cpu time spent up to now is     1055.6 secs

     total energy              =    -435.23224501 Ry
     Harris-Foulkes estimate   =    -435.71034898 Ry
     estimated scf accuracy    <       1.06623810 Ry

     iteration #  3     ecut=    18.00 Ry     beta= 0.70
     Davidson diagonalization with overlap
     ethr =  2.05E-03,  avg # of iterations =  1.8

     total cpu time spent up to now is     1067.3 secs

     total energy              =    -435.17062048 Ry
     Harris-Foulkes estimate   =    -435.29311814 Ry
     estimated scf accuracy    <       0.19801597 Ry

     iteration #  4     ecut=    18.00 Ry     beta= 0.70
     Davidson diagonalization with overlap
     ethr =  3.81E-04,  avg # of iterations =  2.0

     total cpu time spent up to now is     1083.5 secs

     total energy              =    -435.20795992 Ry
     Harris-Foulkes estimate   =    -435.20817585 Ry
     estimated scf accuracy    <       0.00065550 Ry

     iteration #  5     ecut=    18.00 Ry     beta= 0.70
     Davidson diagonalization with overlap
     ethr =  1.26E-06,  avg # of iterations =  2.3

     total cpu time spent up to now is     1099.1 secs

     total energy              =    -435.20808135 Ry
     Harris-Foulkes estimate   =    -435.20811594 Ry
     estimated scf accuracy    <       0.00010658 Ry

     iteration #  6     ecut=    18.00 Ry     beta= 0.70
     Davidson diagonalization with overlap
     ethr =  2.05E-07,  avg # of iterations =  2.0

     total cpu time spent up to now is     1115.3 secs

     total energy              =    -435.20809339 Ry
     Harris-Foulkes estimate   =    -435.20811404 Ry
     estimated scf accuracy    <       0.00003923 Ry

     iteration #  7     ecut=    18.00 Ry     beta= 0.70
     Davidson diagonalization with overlap
     ethr =  7.54E-08,  avg # of iterations =  2.0

     total cpu time spent up to now is     1129.0 secs

     total energy              =    -435.20809483 Ry
     Harris-Foulkes estimate   =    -435.20809749 Ry
     estimated scf accuracy    <       0.00000405 Ry

     iteration #  8     ecut=    18.00 Ry     beta= 0.70
     Davidson diagonalization with overlap
     ethr =  7.79E-09,  avg # of iterations =  2.0

     total cpu time spent up to now is     1145.2 secs

     total energy              =    -435.20809577 Ry
     Harris-Foulkes estimate   =    -435.20809579 Ry
     estimated scf accuracy    <       0.00000005 Ry

     iteration #  9     ecut=    18.00 Ry     beta= 0.70
     Davidson diagonalization with overlap
     ethr =  9.80E-11,  avg # of iterations =  2.0

     total cpu time spent up to now is     1160.1 secs

     total energy              =    -435.20809578 Ry
     Harris-Foulkes estimate   =    -435.20809578 Ry
     estimated scf accuracy    <          5.9E-09 Ry

     iteration # 10     ecut=    18.00 Ry     beta= 0.70
     Davidson diagonalization with overlap
     ethr =  1.14E-11,  avg # of iterations =  2.0

     total cpu time spent up to now is     1175.1 secs

     total energy              =    -435.20809578 Ry
     Harris-Foulkes estimate   =    -435.20809578 Ry
     estimated scf accuracy    <          9.0E-11 Ry

     iteration # 11     ecut=    18.00 Ry     beta= 0.70
     Davidson diagonalization with overlap
     ethr =  1.74E-13,  avg # of iterations =  2.2

     total cpu time spent up to now is     1191.4 secs

     total energy              =    -435.20809578 Ry
     Harris-Foulkes estimate   =    -435.20809578 Ry
     estimated scf accuracy    <          1.2E-11 Ry

     iteration # 12     ecut=    18.00 Ry     beta= 0.70
     Davidson diagonalization with overlap
     ethr =  1.00E-13,  avg # of iterations =  1.7

     total cpu time spent up to now is     1203.0 secs

     End of self-consistent calculation

     Number of k-points >= 100: set verbosity='high' to print the bands.

     highest occupied level (ev):    34.5650

!    total energy              =    -435.20809578 Ry
     Harris-Foulkes estimate   =    -435.20809578 Ry
     estimated scf accuracy    <          5.4E-13 Ry

     The total energy is the sum of the following terms:

     one-electron contribution =      43.72034828 Ry
     hartree contribution      =      57.52612672 Ry
     xc contribution           =    -126.54470383 Ry
     ewald contribution        =    -409.90986695 Ry

     convergence has been achieved in  12 iterations

     Forces acting on atoms (cartesian axes, Ry/au):

     atom    1 type  1   force =     0.00866992    0.00866992    0.00000000
     atom    2 type  1   force =     0.00441576    0.00441576    0.00000000
     atom    3 type  2   force =     0.10288713   -0.10505052    0.00000000
     atom    4 type  2   force =    -0.10505052    0.10288713    0.00000000
     atom    5 type  2   force =     0.02702826    0.02702826    0.00000000
     atom    6 type  2   force =    -0.03795054   -0.03795054    0.00000000

     Total force =     0.218572     Total SCF correction =     0.000001


     Computing stress (Cartesian axis) and pressure

          total   stress  (Ry/bohr**3)                   (kbar)     P=-1603.08
  -0.00976898  -0.00043812   0.00000000      -1437.07    -64.45      0.00
  -0.00043812  -0.00976898   0.00000000        -64.45  -1437.07      0.00
   0.00000000  -0.00000000  -0.01315458          0.00     -0.00  -1935.11


     number of scf cycles    =   5
     number of bfgs steps    =   3

     enthalpy old            =    -434.8285562155 Ry
     enthalpy new            =    -435.2080957780 Ry

     CASE: enthalpy_new < enthalpy_old

     new trust radius        =       0.0600216369 bohr
     new conv_thr            =            1.0E-12 Ry

     new unit-cell volume =    196.00847 a.u.^3 (    29.04546 Ang^3 )
     density =     17.23206 g/cm^3

CELL_PARAMETERS (alat=  9.11000000)
   0.716886748   0.000000000   0.000000000
   0.000000000   0.716886748   0.000000000
   0.000000000   0.000000000   0.504450562

ATOMIC_POSITIONS (crystal)
Sn       0.000393897   0.000393897   0.000000000
Sn       0.500119056   0.500119056   0.500000000
O        0.805823396   0.192928728   0.500000000
O        0.192928728   0.805823396   0.500000000
O        0.301159418   0.301159418   0.000000000
O        0.697575505   0.697575505   0.000000000



     Writing output data file SnO2.save
     Check: negative starting charge=   -0.000479
     NEW-OLD atomic charge density approx. for the potential

     Check: negative/imaginary core charge=   -0.001332    0.000000
     Check: negative starting charge=   -0.000225
     extrapolated charge   49.20945, renormalised to   52.00000

     total cpu time spent up to now is     1209.1 secs

     Self-consistent Calculation

     iteration #  1     ecut=    18.00 Ry     beta= 0.70
     Davidson diagonalization with overlap
     ethr =  1.00E-06,  avg # of iterations =  5.0

     total cpu time spent up to now is     1237.4 secs

     total energy              =    -435.02987595 Ry
     Harris-Foulkes estimate   =    -436.11199654 Ry
     estimated scf accuracy    <       0.15513014 Ry

     iteration #  2     ecut=    18.00 Ry     beta= 0.70
     Davidson diagonalization with overlap
     ethr =  2.98E-04,  avg # of iterations =  3.0

     total cpu time spent up to now is     1256.5 secs

     total energy              =    -435.21739690 Ry
     Harris-Foulkes estimate   =    -435.26075363 Ry
     estimated scf accuracy    <       0.09561503 Ry

     iteration #  3     ecut=    18.00 Ry     beta= 0.70
     Davidson diagonalization with overlap
     ethr =  1.84E-04,  avg # of iterations =  2.0

     total cpu time spent up to now is     1268.8 secs

     total energy              =    -435.21681053 Ry
     Harris-Foulkes estimate   =    -435.22407873 Ry
     estimated scf accuracy    <       0.01343428 Ry

     iteration #  4     ecut=    18.00 Ry     beta= 0.70
     Davidson diagonalization with overlap
     ethr =  2.58E-05,  avg # of iterations =  2.1

     total cpu time spent up to now is     1284.5 secs

     total energy              =    -435.21854329 Ry
     Harris-Foulkes estimate   =    -435.21882375 Ry
     estimated scf accuracy    <       0.00046396 Ry

     iteration #  5     ecut=    18.00 Ry     beta= 0.70
     Davidson diagonalization with overlap
     ethr =  8.92E-07,  avg # of iterations =  2.3

     total cpu time spent up to now is     1300.1 secs

     total energy              =    -435.21864036 Ry
     Harris-Foulkes estimate   =    -435.21864689 Ry
     estimated scf accuracy    <       0.00001923 Ry

     iteration #  6     ecut=    18.00 Ry     beta= 0.70
     Davidson diagonalization with overlap
     ethr =  3.70E-08,  avg # of iterations =  2.8

     total cpu time spent up to now is     1316.2 secs

     total energy              =    -435.21863927 Ry
     Harris-Foulkes estimate   =    -435.21864544 Ry
     estimated scf accuracy    <       0.00001176 Ry

     iteration #  7     ecut=    18.00 Ry     beta= 0.70
     Davidson diagonalization with overlap
     ethr =  2.26E-08,  avg # of iterations =  2.0

     total cpu time spent up to now is     1328.9 secs

     total energy              =    -435.21863957 Ry
     Harris-Foulkes estimate   =    -435.21864029 Ry
     estimated scf accuracy    <       0.00000117 Ry

     iteration #  8     ecut=    18.00 Ry     beta= 0.70
     Davidson diagonalization with overlap
     ethr =  2.25E-09,  avg # of iterations =  2.1

     total cpu time spent up to now is     1345.2 secs

     total energy              =    -435.21863984 Ry
     Harris-Foulkes estimate   =    -435.21863984 Ry
     estimated scf accuracy    <          1.5E-09 Ry

     iteration #  9     ecut=    18.00 Ry     beta= 0.70
     Davidson diagonalization with overlap
     ethr =  2.79E-12,  avg # of iterations =  3.1

     total cpu time spent up to now is     1362.9 secs

     total energy              =    -435.21863984 Ry
     Harris-Foulkes estimate   =    -435.21863984 Ry
     estimated scf accuracy    <          9.2E-11 Ry

     iteration # 10     ecut=    18.00 Ry     beta= 0.70
     Davidson diagonalization with overlap
     ethr =  1.78E-13,  avg # of iterations =  2.0

     total cpu time spent up to now is     1379.0 secs

     total energy              =    -435.21863984 Ry
     Harris-Foulkes estimate   =    -435.21863984 Ry
     estimated scf accuracy    <          8.5E-12 Ry

     iteration # 11     ecut=    18.00 Ry     beta= 0.70
     Davidson diagonalization with overlap
     ethr =  1.00E-13,  avg # of iterations =  1.0

     total cpu time spent up to now is     1389.9 secs

     End of self-consistent calculation

     Number of k-points >= 100: set verbosity='high' to print the bands.

     highest occupied level (ev):    36.6206

!    total energy              =    -435.21863984 Ry
     Harris-Foulkes estimate   =    -435.21863984 Ry
     estimated scf accuracy    <          3.4E-13 Ry

     The total energy is the sum of the following terms:

     one-electron contribution =      53.14206459 Ry
     hartree contribution      =      56.29306070 Ry
     xc contribution           =    -127.38379506 Ry
     ewald contribution        =    -417.26997006 Ry

     convergence has been achieved in  11 iterations

     Forces acting on atoms (cartesian axes, Ry/au):

     atom    1 type  1   force =    -0.04876802   -0.04876802    0.00000000
     atom    2 type  1   force =    -0.01419064   -0.01419064    0.00000000
     atom    3 type  2   force =    -0.14302248    0.12486887    0.00000000
     atom    4 type  2   force =     0.12486887   -0.14302248    0.00000000
     atom    5 type  2   force =     0.16504379    0.16504379    0.00000000
     atom    6 type  2   force =    -0.08393152   -0.08393152    0.00000000

     Total force =     0.381867     Total SCF correction =     0.000004


     Computing stress (Cartesian axis) and pressure

          total   stress  (Ry/bohr**3)                   (kbar)     P= 1208.32
   0.00891159   0.00169091   0.00000000       1310.94    248.74      0.00
   0.00169091   0.00891159  -0.00000000        248.74   1310.94     -0.00
   0.00000000  -0.00000000   0.00681871          0.00     -0.00   1003.07


     number of scf cycles    =   6
     number of bfgs steps    =   4

     enthalpy old            =    -435.2080957780 Ry
     enthalpy new            =    -435.2186398392 Ry

     CASE: enthalpy_new < enthalpy_old

     new trust radius        =       0.0588194895 bohr
     new conv_thr            =            1.0E-12 Ry

     new unit-cell volume =    199.11844 a.u.^3 (    29.50631 Ang^3 )
     density =     16.96291 g/cm^3

CELL_PARAMETERS (alat=  9.11000000)
   0.722643381   0.000000000   0.000000000
   0.000000000   0.722643381   0.000000000
   0.000000000   0.000000000   0.504322452

ATOMIC_POSITIONS (crystal)
Sn      -0.001637157  -0.001637157   0.000000000
Sn       0.499541631   0.499541631   0.500000000
O        0.799633251   0.198323855   0.500000000
O        0.198323855   0.799633251   0.500000000
O        0.307527921   0.307527921   0.000000000
O        0.694610499   0.694610499   0.000000000



     Writing output data file SnO2.save
     Check: negative starting charge=   -0.000225
     NEW-OLD atomic charge density approx. for the potential

     Check: negative/imaginary core charge=   -0.001386    0.000000
     Check: negative starting charge=   -0.000314

     negative rho (up, down):  6.262E-05 0.000E+00
     extrapolated charge   52.81212, renormalised to   52.00000

     total cpu time spent up to now is     1396.0 secs

     Self-consistent Calculation

     iteration #  1     ecut=    18.00 Ry     beta= 0.70
     Davidson diagonalization with overlap
     ethr =  1.00E-06,  avg # of iterations =  5.3

     total cpu time spent up to now is     1424.7 secs

     total energy              =    -435.21023293 Ry
     Harris-Foulkes estimate   =    -434.94727293 Ry
     estimated scf accuracy    <       0.02017270 Ry

     iteration #  2     ecut=    18.00 Ry     beta= 0.70
     Davidson diagonalization with overlap
     ethr =  3.88E-05,  avg # of iterations =  3.0

     total cpu time spent up to now is     1443.3 secs

     total energy              =    -435.22867592 Ry
     Harris-Foulkes estimate   =    -435.23359644 Ry
     estimated scf accuracy    <       0.01021099 Ry

     iteration #  3     ecut=    18.00 Ry     beta= 0.70
     Davidson diagonalization with overlap
     ethr =  1.96E-05,  avg # of iterations =  2.0

     total cpu time spent up to now is     1456.8 secs

     total energy              =    -435.22898521 Ry
     Harris-Foulkes estimate   =    -435.22961060 Ry
     estimated scf accuracy    <       0.00113876 Ry

     iteration #  4     ecut=    18.00 Ry     beta= 0.70
     Davidson diagonalization with overlap
     ethr =  2.19E-06,  avg # of iterations =  2.0

     total cpu time spent up to now is     1472.8 secs

     total energy              =    -435.22915729 Ry
     Harris-Foulkes estimate   =    -435.22919914 Ry
     estimated scf accuracy    <       0.00007234 Ry

     iteration #  5     ecut=    18.00 Ry     beta= 0.70
     Davidson diagonalization with overlap
     ethr =  1.39E-07,  avg # of iterations =  2.9

     total cpu time spent up to now is     1488.0 secs

     total energy              =    -435.22917553 Ry
     Harris-Foulkes estimate   =    -435.22917693 Ry
     estimated scf accuracy    <       0.00000335 Ry

     iteration #  6     ecut=    18.00 Ry     beta= 0.70
     Davidson diagonalization with overlap
     ethr =  6.45E-09,  avg # of iterations =  2.5

     total cpu time spent up to now is     1502.4 secs

     total energy              =    -435.22917569 Ry
     Harris-Foulkes estimate   =    -435.22917603 Ry
     estimated scf accuracy    <       0.00000064 Ry

     iteration #  7     ecut=    18.00 Ry     beta= 0.70
     Davidson diagonalization with overlap
     ethr =  1.23E-09,  avg # of iterations =  2.0

     total cpu time spent up to now is     1517.0 secs

     total energy              =    -435.22917574 Ry
     Harris-Foulkes estimate   =    -435.22917577 Ry
     estimated scf accuracy    <       0.00000004 Ry

     iteration #  8     ecut=    18.00 Ry     beta= 0.70
     Davidson diagonalization with overlap
     ethr =  8.18E-11,  avg # of iterations =  2.1

     total cpu time spent up to now is     1533.1 secs

     total energy              =    -435.22917575 Ry
     Harris-Foulkes estimate   =    -435.22917575 Ry
     estimated scf accuracy    <          2.3E-10 Ry

     iteration #  9     ecut=    18.00 Ry     beta= 0.70
     Davidson diagonalization with overlap
     ethr =  4.43E-13,  avg # of iterations =  2.9

     total cpu time spent up to now is     1550.6 secs

     total energy              =    -435.22917575 Ry
     Harris-Foulkes estimate   =    -435.22917575 Ry
     estimated scf accuracy    <          4.6E-11 Ry

     iteration # 10     ecut=    18.00 Ry     beta= 0.70
     Davidson diagonalization with overlap
     ethr =  1.00E-13,  avg # of iterations =  2.0

     total cpu time spent up to now is     1565.9 secs

     total energy              =    -435.22917575 Ry
     Harris-Foulkes estimate   =    -435.22917575 Ry
     estimated scf accuracy    <          2.9E-12 Ry

     iteration # 11     ecut=    18.00 Ry     beta= 0.70
     Davidson diagonalization with overlap
     ethr =  1.00E-13,  avg # of iterations =  1.0

     total cpu time spent up to now is     1576.8 secs

     End of self-consistent calculation

     Number of k-points >= 100: set verbosity='high' to print the bands.

     highest occupied level (ev):    35.9516

!    total energy              =    -435.22917575 Ry
     Harris-Foulkes estimate   =    -435.22917575 Ry
     estimated scf accuracy    <          2.6E-14 Ry

     The total energy is the sum of the following terms:

     one-electron contribution =      49.85106027 Ry
     hartree contribution      =      56.86669192 Ry
     xc contribution           =    -127.14379505 Ry
     ewald contribution        =    -414.80313289 Ry

     convergence has been achieved in  11 iterations

     Forces acting on atoms (cartesian axes, Ry/au):

     atom    1 type  1   force =     0.13734776    0.13734776    0.00000000
     atom    2 type  1   force =     0.04357983    0.04357983    0.00000000
     atom    3 type  2   force =     0.14678026   -0.13241360    0.00000000
     atom    4 type  2   force =    -0.13241360    0.14678026    0.00000000
     atom    5 type  2   force =    -0.27054241   -0.27054241    0.00000000
     atom    6 type  2   force =     0.07524817    0.07524817    0.00000000

     Total force =     0.526682     Total SCF correction =     0.000000


     Computing stress (Cartesian axis) and pressure

          total   stress  (Ry/bohr**3)                   (kbar)     P=  353.16
   0.00214514  -0.00197112   0.00000000        315.56   -289.96      0.00
  -0.00197112   0.00214514   0.00000000       -289.96    315.56      0.00
   0.00000000   0.00000000   0.00291198          0.00      0.00    428.37


     number of scf cycles    =   7
     number of bfgs steps    =   5

     enthalpy old            =    -435.2186398392 Ry
     enthalpy new            =    -435.2291757507 Ry

     CASE: enthalpy_new < enthalpy_old

     new trust radius        =       0.0652209940 bohr
     new conv_thr            =            1.0E-12 Ry

     new unit-cell volume =    203.67992 a.u.^3 (    30.18225 Ang^3 )
     density =     16.58302 g/cm^3

CELL_PARAMETERS (alat=  9.11000000)
   0.729733480   0.000000000   0.000000000
   0.000000000   0.729733480   0.000000000
   0.000000000   0.000000000   0.505899841

ATOMIC_POSITIONS (crystal)
Sn       0.002634627   0.002634627   0.000000000
Sn       0.500898359   0.500898359   0.500000000
O        0.801360230   0.196772027   0.500000000
O        0.196772027   0.801360230   0.500000000
O        0.300522568   0.300522568   0.000000000
O        0.695812190   0.695812190   0.000000000



     Writing output data file SnO2.save
     Check: negative starting charge=   -0.000314
     NEW-OLD atomic charge density approx. for the potential

     Check: negative/imaginary core charge=   -0.001435    0.000000
     Check: negative starting charge=   -0.000392

     negative rho (up, down):  5.473E-05 0.000E+00
     extrapolated charge   53.16449, renormalised to   52.00000

     total cpu time spent up to now is     1582.9 secs

     Self-consistent Calculation

     iteration #  1     ecut=    18.00 Ry     beta= 0.70
     Davidson diagonalization with overlap
     ethr =  1.00E-06,  avg # of iterations =  5.1

     total cpu time spent up to now is     1611.2 secs

     total energy              =    -435.19124937 Ry
     Harris-Foulkes estimate   =    -434.78735826 Ry
     estimated scf accuracy    <       0.03122421 Ry

     iteration #  2     ecut=    18.00 Ry     beta= 0.70
     Davidson diagonalization with overlap
     ethr =  6.00E-05,  avg # of iterations =  3.0

     total cpu time spent up to now is     1630.5 secs

     total energy              =    -435.22781638 Ry
     Harris-Foulkes estimate   =    -435.23681084 Ry
     estimated scf accuracy    <       0.01968169 Ry

     iteration #  3     ecut=    18.00 Ry     beta= 0.70
     Davidson diagonalization with overlap
     ethr =  3.78E-05,  avg # of iterations =  2.0

     total cpu time spent up to now is     1642.9 secs

     total energy              =    -435.22764793 Ry
     Harris-Foulkes estimate   =    -435.22921470 Ry
     estimated scf accuracy    <       0.00282042 Ry

     iteration #  4     ecut=    18.00 Ry     beta= 0.70
     Davidson diagonalization with overlap
     ethr =  5.42E-06,  avg # of iterations =  2.0

     total cpu time spent up to now is     1658.8 secs

     total energy              =    -435.22805086 Ry
     Harris-Foulkes estimate   =    -435.22810206 Ry
     estimated scf accuracy    <       0.00008713 Ry

     iteration #  5     ecut=    18.00 Ry     beta= 0.70
     Davidson diagonalization with overlap
     ethr =  1.68E-07,  avg # of iterations =  2.7

     total cpu time spent up to now is     1674.6 secs

     total energy              =    -435.22807347 Ry
     Harris-Foulkes estimate   =    -435.22807554 Ry
     estimated scf accuracy    <       0.00000537 Ry

     iteration #  6     ecut=    18.00 Ry     beta= 0.70
     Davidson diagonalization with overlap
     ethr =  1.03E-08,  avg # of iterations =  2.6

     total cpu time spent up to now is     1689.2 secs

     total energy              =    -435.22807362 Ry
     Harris-Foulkes estimate   =    -435.22807449 Ry
     estimated scf accuracy    <       0.00000159 Ry

     iteration #  7     ecut=    18.00 Ry     beta= 0.70
     Davidson diagonalization with overlap
     ethr =  3.06E-09,  avg # of iterations =  2.0

     total cpu time spent up to now is     1703.0 secs

     total energy              =    -435.22807371 Ry
     Harris-Foulkes estimate   =    -435.22807379 Ry
     estimated scf accuracy    <       0.00000014 Ry

     iteration #  8     ecut=    18.00 Ry     beta= 0.70
     Davidson diagonalization with overlap
     ethr =  2.73E-10,  avg # of iterations =  2.0

     total cpu time spent up to now is     1719.1 secs

     total energy              =    -435.22807373 Ry
     Harris-Foulkes estimate   =    -435.22807373 Ry
     estimated scf accuracy    <          2.4E-09 Ry

     iteration #  9     ecut=    18.00 Ry     beta= 0.70
     Davidson diagonalization with overlap
     ethr =  4.71E-12,  avg # of iterations =  2.2

     total cpu time spent up to now is     1735.5 secs

     total energy              =    -435.22807373 Ry
     Harris-Foulkes estimate   =    -435.22807373 Ry
     estimated scf accuracy    <          1.5E-10 Ry

     iteration # 10     ecut=    18.00 Ry     beta= 0.70
     Davidson diagonalization with overlap
     ethr =  2.86E-13,  avg # of iterations =  2.0

     total cpu time spent up to now is     1750.2 secs

     total energy              =    -435.22807373 Ry
     Harris-Foulkes estimate   =    -435.22807373 Ry
     estimated scf accuracy    <          9.2E-12 Ry

     iteration # 11     ecut=    18.00 Ry     beta= 0.70
     Davidson diagonalization with overlap
     ethr =  1.00E-13,  avg # of iterations =  1.0

     total cpu time spent up to now is     1761.1 secs

     End of self-consistent calculation

     Number of k-points >= 100: set verbosity='high' to print the bands.

     highest occupied level (ev):    35.0350

!    total energy              =    -435.22807373 Ry
     Harris-Foulkes estimate   =    -435.22807373 Ry
     estimated scf accuracy    <          1.3E-13 Ry

     The total energy is the sum of the following terms:

     one-electron contribution =      45.72116072 Ry
     hartree contribution      =      57.42132486 Ry
     xc contribution           =    -126.78198387 Ry
     ewald contribution        =    -411.58857543 Ry

     convergence has been achieved in  11 iterations

     Forces acting on atoms (cartesian axes, Ry/au):

     atom    1 type  1   force =    -0.20348929   -0.20348929    0.00000000
     atom    2 type  1   force =    -0.05593452   -0.05593452    0.00000000
     atom    3 type  2   force =    -0.02263567   -0.03477366    0.00000000
     atom    4 type  2   force =    -0.03477366   -0.02263567    0.00000000
     atom    5 type  2   force =     0.16548806    0.16548806    0.00000000
     atom    6 type  2   force =     0.15134507    0.15134507    0.00000000

     Total force =     0.439431     Total SCF correction =     0.000002


     Computing stress (Cartesian axis) and pressure

          total   stress  (Ry/bohr**3)                   (kbar)     P= -861.19
  -0.00622909   0.00006223   0.00000000       -916.33      9.15      0.00
   0.00006223  -0.00622909   0.00000000          9.15   -916.33      0.00
   0.00000000   0.00000000  -0.00510452          0.00      0.00   -750.90


     number of scf cycles    =   8
     number of bfgs steps    =   6

     enthalpy old            =    -435.2291757507 Ry
     enthalpy new            =    -435.2280737306 Ry

     CASE: enthalpy_new > enthalpy_old

     new trust radius        =       0.0322324062 bohr
     new conv_thr            =            1.0E-12 Ry

     new unit-cell volume =    201.34297 a.u.^3 (    29.83595 Ang^3 )
     density =     16.77550 g/cm^3

CELL_PARAMETERS (alat=  9.11000000)
   0.726113284   0.000000000   0.000000000
   0.000000000   0.726113284   0.000000000
   0.000000000   0.000000000   0.505094428

ATOMIC_POSITIONS (crystal)
Sn       0.000453459   0.000453459   0.000000000
Sn       0.500205616   0.500205616   0.500000000
O        0.800478437   0.197564389   0.500000000
O        0.197564389   0.800478437   0.500000000
O        0.304099492   0.304099492   0.000000000
O        0.695198608   0.695198608   0.000000000



     Writing output data file SnO2.save
     Check: negative starting charge=   -0.000392
     NEW-OLD atomic charge density approx. for the potential

     Check: negative/imaginary core charge=   -0.001408    0.000000
     Check: negative starting charge=   -0.000359
     extrapolated charge   51.39648, renormalised to   52.00000

     total cpu time spent up to now is     1767.2 secs

     Self-consistent Calculation

     iteration #  1     ecut=    18.00 Ry     beta= 0.70
     Davidson diagonalization with overlap
     ethr =  1.00E-06,  avg # of iterations =  4.7

     total cpu time spent up to now is     1794.4 secs

     total energy              =    -435.23211477 Ry
     Harris-Foulkes estimate   =    -435.46060709 Ry
     estimated scf accuracy    <       0.00836117 Ry

     iteration #  2     ecut=    18.00 Ry     beta= 0.70
     Davidson diagonalization with overlap
     ethr =  1.61E-05,  avg # of iterations =  3.0

     total cpu time spent up to now is     1813.6 secs

     total energy              =    -435.24154815 Ry
     Harris-Foulkes estimate   =    -435.24383533 Ry
     estimated scf accuracy    <       0.00499291 Ry

     iteration #  3     ecut=    18.00 Ry     beta= 0.70
     Davidson diagonalization with overlap
     ethr =  9.60E-06,  avg # of iterations =  2.0

     total cpu time spent up to now is     1826.1 secs

     total energy              =    -435.24155043 Ry
     Harris-Foulkes estimate   =    -435.24191763 Ry
     estimated scf accuracy    <       0.00067395 Ry

     iteration #  4     ecut=    18.00 Ry     beta= 0.70
     Davidson diagonalization with overlap
     ethr =  1.30E-06,  avg # of iterations =  2.0

     total cpu time spent up to now is     1841.9 secs

     total energy              =    -435.24164357 Ry
     Harris-Foulkes estimate   =    -435.24165788 Ry
     estimated scf accuracy    <       0.00002462 Ry

     iteration #  5     ecut=    18.00 Ry     beta= 0.70
     Davidson diagonalization with overlap
     ethr =  4.74E-08,  avg # of iterations =  2.6

     total cpu time spent up to now is     1857.8 secs

     total energy              =    -435.24164988 Ry
     Harris-Foulkes estimate   =    -435.24165041 Ry
     estimated scf accuracy    <       0.00000140 Ry

     iteration #  6     ecut=    18.00 Ry     beta= 0.70
     Davidson diagonalization with overlap
     ethr =  2.70E-09,  avg # of iterations =  2.5

     total cpu time spent up to now is     1872.2 secs

     total energy              =    -435.24164990 Ry
     Harris-Foulkes estimate   =    -435.24165012 Ry
     estimated scf accuracy    <       0.00000040 Ry

     iteration #  7     ecut=    18.00 Ry     beta= 0.70
     Davidson diagonalization with overlap
     ethr =  7.74E-10,  avg # of iterations =  2.0

     total cpu time spent up to now is     1886.1 secs

     total energy              =    -435.24164992 Ry
     Harris-Foulkes estimate   =    -435.24164994 Ry
     estimated scf accuracy    <       0.00000003 Ry

     iteration #  8     ecut=    18.00 Ry     beta= 0.70
     Davidson diagonalization with overlap
     ethr =  6.63E-11,  avg # of iterations =  2.0

     total cpu time spent up to now is     1902.2 secs

     total energy              =    -435.24164993 Ry
     Harris-Foulkes estimate   =    -435.24164993 Ry
     estimated scf accuracy    <          5.5E-10 Ry

     iteration #  9     ecut=    18.00 Ry     beta= 0.70
     Davidson diagonalization with overlap
     ethr =  1.06E-12,  avg # of iterations =  2.2

     total cpu time spent up to now is     1918.6 secs

     total energy              =    -435.24164993 Ry
     Harris-Foulkes estimate   =    -435.24164993 Ry
     estimated scf accuracy    <          2.9E-11 Ry

     iteration # 10     ecut=    18.00 Ry     beta= 0.70
     Davidson diagonalization with overlap
     ethr =  1.00E-13,  avg # of iterations =  2.0

     total cpu time spent up to now is     1932.0 secs

     total energy              =    -435.24164993 Ry
     Harris-Foulkes estimate   =    -435.24164993 Ry
     estimated scf accuracy    <          3.7E-12 Ry

     iteration # 11     ecut=    18.00 Ry     beta= 0.70
     Davidson diagonalization with overlap
     ethr =  1.00E-13,  avg # of iterations =  1.0

     total cpu time spent up to now is     1942.9 secs

     End of self-consistent calculation

     Number of k-points >= 100: set verbosity='high' to print the bands.

     highest occupied level (ev):    35.4911

!    total energy              =    -435.24164993 Ry
     Harris-Foulkes estimate   =    -435.24164993 Ry
     estimated scf accuracy    <          3.4E-14 Ry

     The total energy is the sum of the following terms:

     one-electron contribution =      47.85941052 Ry
     hartree contribution      =      57.12017682 Ry
     xc contribution           =    -126.96570224 Ry
     ewald contribution        =    -413.25553503 Ry

     convergence has been achieved in  11 iterations

     Forces acting on atoms (cartesian axes, Ry/au):

     atom    1 type  1   force =    -0.02780014   -0.02780014    0.00000000
     atom    2 type  1   force =    -0.00488540   -0.00488540    0.00000000
     atom    3 type  2   force =     0.06243925   -0.08320220    0.00000000
     atom    4 type  2   force =    -0.08320220    0.06243925    0.00000000
     atom    5 type  2   force =    -0.06060131   -0.06060131    0.00000000
     atom    6 type  2   force =     0.11404980    0.11404980    0.00000000

     Total force =     0.237899     Total SCF correction =     0.000001


     Computing stress (Cartesian axis) and pressure

          total   stress  (Ry/bohr**3)                   (kbar)     P= -258.65
  -0.00207337  -0.00099532   0.00000000       -305.00   -146.42      0.00
  -0.00099532  -0.00207337   0.00000000       -146.42   -305.00      0.00
   0.00000000   0.00000000  -0.00112802          0.00      0.00   -165.94


     number of scf cycles    =   9
     number of bfgs steps    =   6

     enthalpy old            =    -435.2291757507 Ry
     enthalpy new            =    -435.2416499301 Ry

     CASE: enthalpy_new < enthalpy_old

     new trust radius        =       0.0697523986 bohr
     new conv_thr            =            1.0E-12 Ry

     new unit-cell volume =    201.54530 a.u.^3 (    29.86593 Ang^3 )
     density =     16.75866 g/cm^3

CELL_PARAMETERS (alat=  9.11000000)
   0.726228043   0.000000000   0.000000000
   0.000000000   0.726228043   0.000000000
   0.000000000   0.000000000   0.505442222

ATOMIC_POSITIONS (crystal)
Sn      -0.002771850  -0.002771850   0.000000000
Sn       0.499498876   0.499498876   0.500000000
O        0.803250162   0.192882185   0.500000000
O        0.192882185   0.803250162   0.500000000
O        0.302485754   0.302485754   0.000000000
O        0.702654874   0.702654874   0.000000000



     Writing output data file SnO2.save
     Check: negative starting charge=   -0.000359
     NEW-OLD atomic charge density approx. for the potential

     Check: negative/imaginary core charge=   -0.001407    0.000000
     Check: negative starting charge=   -0.000327
     extrapolated charge   52.05220, renormalised to   52.00000

     total cpu time spent up to now is     1949.1 secs

     Self-consistent Calculation

     iteration #  1     ecut=    18.00 Ry     beta= 0.70
     Davidson diagonalization with overlap
     ethr =  1.00E-06,  avg # of iterations =  5.3

     total cpu time spent up to now is     1979.3 secs

     total energy              =    -435.21971747 Ry
     Harris-Foulkes estimate   =    -435.20332633 Ry
     estimated scf accuracy    <       0.00605467 Ry

     iteration #  2     ecut=    18.00 Ry     beta= 0.70
     Davidson diagonalization with overlap
     ethr =  1.16E-05,  avg # of iterations =  2.2

     total cpu time spent up to now is     1994.7 secs

     total energy              =    -435.22098786 Ry
     Harris-Foulkes estimate   =    -435.22159651 Ry
     estimated scf accuracy    <       0.00107830 Ry

     iteration #  3     ecut=    18.00 Ry     beta= 0.70
     Davidson diagonalization with overlap
     ethr =  2.07E-06,  avg # of iterations =  2.3

     total cpu time spent up to now is     2009.4 secs

     total energy              =    -435.22129907 Ry
     Harris-Foulkes estimate   =    -435.22131094 Ry
     estimated scf accuracy    <       0.00008306 Ry

     iteration #  4     ecut=    18.00 Ry     beta= 0.70
     Davidson diagonalization with overlap
     ethr =  1.60E-07,  avg # of iterations =  2.3

     total cpu time spent up to now is     2023.9 secs

     total energy              =    -435.22131387 Ry
     Harris-Foulkes estimate   =    -435.22131446 Ry
     estimated scf accuracy    <       0.00000324 Ry

     iteration #  5     ecut=    18.00 Ry     beta= 0.70
     Davidson diagonalization with overlap
     ethr =  6.24E-09,  avg # of iterations =  2.4

     total cpu time spent up to now is     2039.6 secs

     total energy              =    -435.22131455 Ry
     Harris-Foulkes estimate   =    -435.22131464 Ry
     estimated scf accuracy    <       0.00000022 Ry

     iteration #  6     ecut=    18.00 Ry     beta= 0.70
     Davidson diagonalization with overlap
     ethr =  4.25E-10,  avg # of iterations =  2.5

     total cpu time spent up to now is     2056.4 secs

     total energy              =    -435.22131460 Ry
     Harris-Foulkes estimate   =    -435.22131461 Ry
     estimated scf accuracy    <       0.00000001 Ry

     iteration #  7     ecut=    18.00 Ry     beta= 0.70
     Davidson diagonalization with overlap
     ethr =  2.38E-11,  avg # of iterations =  2.2

     total cpu time spent up to now is     2072.1 secs

     total energy              =    -435.22131461 Ry
     Harris-Foulkes estimate   =    -435.22131461 Ry
     estimated scf accuracy    <          1.4E-09 Ry

     iteration #  8     ecut=    18.00 Ry     beta= 0.70
     Davidson diagonalization with overlap
     ethr =  2.69E-12,  avg # of iterations =  2.5

     total cpu time spent up to now is     2088.3 secs

     total energy              =    -435.22131461 Ry
     Harris-Foulkes estimate   =    -435.22131461 Ry
     estimated scf accuracy    <          8.2E-11 Ry

     iteration #  9     ecut=    18.00 Ry     beta= 0.70
     Davidson diagonalization with overlap
     ethr =  1.58E-13,  avg # of iterations =  2.4

     total cpu time spent up to now is     2104.4 secs

     total energy              =    -435.22131461 Ry
     Harris-Foulkes estimate   =    -435.22131461 Ry
     estimated scf accuracy    <          3.6E-12 Ry

     iteration # 10     ecut=    18.00 Ry     beta= 0.70
     Davidson diagonalization with overlap
     ethr =  1.00E-13,  avg # of iterations =  1.0

     total cpu time spent up to now is     2115.3 secs

     End of self-consistent calculation

     Number of k-points >= 100: set verbosity='high' to print the bands.

     highest occupied level (ev):    35.5142

!    total energy              =    -435.22131461 Ry
     Harris-Foulkes estimate   =    -435.22131461 Ry
     estimated scf accuracy    <          6.8E-14 Ry

     The total energy is the sum of the following terms:

     one-electron contribution =      47.65265903 Ry
     hartree contribution      =      57.15405499 Ry
     xc contribution           =    -126.94986792 Ry
     ewald contribution        =    -413.07816071 Ry

     convergence has been achieved in  10 iterations

     Forces acting on atoms (cartesian axes, Ry/au):

     atom    1 type  1   force =     0.29914032    0.29914032    0.00000000
     atom    2 type  1   force =     0.08914276    0.08914276    0.00000000
     atom    3 type  2   force =    -0.11375094    0.14345375    0.00000000
     atom    4 type  2   force =     0.14345375   -0.11375094    0.00000000
     atom    5 type  2   force =    -0.04639426   -0.04639426    0.00000000
     atom    6 type  2   force =    -0.37159162   -0.37159162    0.00000000

     Total force =     0.736454     Total SCF correction =     0.000000


     Computing stress (Cartesian axis) and pressure

          total   stress  (Ry/bohr**3)                   (kbar)     P= -296.70
  -0.00195506   0.00187710   0.00000000       -287.60    276.13      0.00
   0.00187710  -0.00195506   0.00000000        276.13   -287.60      0.00
   0.00000000   0.00000000  -0.00214059          0.00      0.00   -314.89


     number of scf cycles    =  10
     number of bfgs steps    =   7

     enthalpy old            =    -435.2416499301 Ry
     enthalpy new            =    -435.2213146066 Ry

     CASE: enthalpy_new > enthalpy_old

     new trust radius        =       0.0176927456 bohr
     new conv_thr            =            1.0E-12 Ry

     new unit-cell volume =    201.39428 a.u.^3 (    29.84355 Ang^3 )
     density =     16.77123 g/cm^3

CELL_PARAMETERS (alat=  9.11000000)
   0.726142388   0.000000000   0.000000000
   0.000000000   0.726142388   0.000000000
   0.000000000   0.000000000   0.505182632

ATOMIC_POSITIONS (crystal)
Sn      -0.000364513  -0.000364513   0.000000000
Sn       0.500026379   0.500026379   0.500000000
O        0.801181376   0.196376932   0.500000000
O        0.196376932   0.801181376   0.500000000
O        0.303690231   0.303690231   0.000000000
O        0.697089596   0.697089596   0.000000000



     Writing output data file SnO2.save
     Check: negative starting charge=   -0.000327
     NEW-OLD atomic charge density approx. for the potential

     Check: negative/imaginary core charge=   -0.001404    0.000000
     Check: negative starting charge=   -0.000354
     extrapolated charge   51.96101, renormalised to   52.00000

     total cpu time spent up to now is     2121.4 secs

     Self-consistent Calculation

     iteration #  1     ecut=    18.00 Ry     beta= 0.70
     Davidson diagonalization with overlap
     ethr =  1.00E-06,  avg # of iterations =  5.1

     total cpu time spent up to now is     2149.4 secs

     total energy              =    -435.24347978 Ry
     Harris-Foulkes estimate   =    -435.25903610 Ry
     estimated scf accuracy    <       0.00332374 Ry

     iteration #  2     ecut=    18.00 Ry     beta= 0.70
     Davidson diagonalization with overlap
     ethr =  6.39E-06,  avg # of iterations =  2.3

     total cpu time spent up to now is     2164.5 secs

     total energy              =    -435.24417737 Ry
     Harris-Foulkes estimate   =    -435.24451544 Ry
     estimated scf accuracy    <       0.00060090 Ry

     iteration #  3     ecut=    18.00 Ry     beta= 0.70
     Davidson diagonalization with overlap
     ethr =  1.16E-06,  avg # of iterations =  2.3

     total cpu time spent up to now is     2179.2 secs

     total energy              =    -435.24435011 Ry
     Harris-Foulkes estimate   =    -435.24435610 Ry
     estimated scf accuracy    <       0.00004542 Ry

     iteration #  4     ecut=    18.00 Ry     beta= 0.70
     Davidson diagonalization with overlap
     ethr =  8.74E-08,  avg # of iterations =  2.3

     total cpu time spent up to now is     2193.7 secs

     total energy              =    -435.24435809 Ry
     Harris-Foulkes estimate   =    -435.24435840 Ry
     estimated scf accuracy    <       0.00000174 Ry

     iteration #  5     ecut=    18.00 Ry     beta= 0.70
     Davidson diagonalization with overlap
     ethr =  3.34E-09,  avg # of iterations =  2.4

     total cpu time spent up to now is     2209.0 secs

     total energy              =    -435.24435845 Ry
     Harris-Foulkes estimate   =    -435.24435850 Ry
     estimated scf accuracy    <       0.00000011 Ry

     iteration #  6     ecut=    18.00 Ry     beta= 0.70
     Davidson diagonalization with overlap
[...]

     iteration #  8     ecut=    18.00 Ry     beta= 0.70
     Davidson diagonalization with overlap
     ethr =  1.00E-13,  avg # of iterations =  2.0

     total cpu time spent up to now is     6746.3 secs

     End of self-consistent calculation

     Number of k-points >= 100: set verbosity='high' to print the bands.

     highest occupied level (ev):    36.9421

!    total energy              =    -436.13813930 Ry
     Harris-Foulkes estimate   =    -436.13813930 Ry
     estimated scf accuracy    <          5.0E-13 Ry

     The total energy is the sum of the following terms:

     one-electron contribution =      71.99997241 Ry
     hartree contribution      =      48.59360119 Ry
     xc contribution           =    -126.82429065 Ry
     ewald contribution        =    -429.90742225 Ry

     convergence has been achieved in   8 iterations

     Forces acting on atoms (cartesian axes, Ry/au):

     atom    1 type  1   force =     0.00128483    0.00128483    0.00000000
     atom    2 type  1   force =     0.00046759    0.00046759    0.00000000
     atom    3 type  2   force =     0.00046747   -0.00008718    0.00000000
     atom    4 type  2   force =    -0.00008718    0.00046747    0.00000000
     atom    5 type  2   force =    -0.00053340   -0.00053340    0.00000000
     atom    6 type  2   force =    -0.00159931   -0.00159931    0.00000000

     Total force =     0.003143     Total SCF correction =     0.000002


     Computing stress (Cartesian axis) and pressure

          total   stress  (Ry/bohr**3)                   (kbar)     P=    1.03
   0.00001852   0.02148432   0.00000000          2.72   3160.45      0.00
   0.02148432   0.00001852   0.00000000       3160.45      2.72      0.00
   0.00000000   0.00000000  -0.00001598          0.00      0.00     -2.35


     number of scf cycles    =  35
     number of bfgs steps    =  26

     enthalpy old            =    -436.1380693182 Ry
     enthalpy new            =    -436.1381393033 Ry

     CASE: enthalpy_new < enthalpy_old

     new trust radius        =       0.0003139390 bohr
     new conv_thr            =            1.0E-12 Ry

     new unit-cell volume =    192.14144 a.u.^3 (    28.47242 Ang^3 )
     density =     17.57887 g/cm^3

CELL_PARAMETERS (alat=  9.11000000)
   0.715053839   0.000000000   0.000000000
   0.000000000   0.715053839   0.000000000
   0.000000000   0.000000000   0.497036658

ATOMIC_POSITIONS (crystal)
Sn       0.055073076   0.055073076   0.000000000
Sn       0.557519167   0.557519167   0.500000000
O        0.689077913   0.103808806   0.500000000
O        0.103808806   0.689077913   0.500000000
O        0.350805425   0.350805425   0.000000000
O        0.741715614   0.741715614   0.000000000



     Writing output data file SnO2.save
     Check: negative starting charge=   -0.000164
     NEW-OLD atomic charge density approx. for the potential

     Check: negative/imaginary core charge=   -0.001330    0.000000
     Check: negative starting charge=   -0.000164
     extrapolated charge   52.00154, renormalised to   52.00000

     total cpu time spent up to now is     6752.4 secs

     Self-consistent Calculation

     iteration #  1     ecut=    18.00 Ry     beta= 0.70
     Davidson diagonalization with overlap
     ethr =  1.00E-06,  avg # of iterations =  1.2

     Threshold (ethr) on eigenvalues was too large:
     Diagonalizing with lowered threshold

     Davidson diagonalization with overlap
     ethr =  3.28E-10,  avg # of iterations =  3.9

     total cpu time spent up to now is     6786.9 secs

     total energy              =    -436.13813996 Ry
     Harris-Foulkes estimate   =    -436.13808104 Ry
     estimated scf accuracy    <       0.00000019 Ry

     iteration #  2     ecut=    18.00 Ry     beta= 0.70
     Davidson diagonalization with overlap
     ethr =  3.74E-10,  avg # of iterations =  3.0

     total cpu time spent up to now is     6805.4 secs

     total energy              =    -436.13814003 Ry
     Harris-Foulkes estimate   =    -436.13814008 Ry
     estimated scf accuracy    <       0.00000009 Ry

     iteration #  3     ecut=    18.00 Ry     beta= 0.70
     Davidson diagonalization with overlap
     ethr =  1.73E-10,  avg # of iterations =  2.6

     total cpu time spent up to now is     6820.5 secs

     total energy              =    -436.13814005 Ry
     Harris-Foulkes estimate   =    -436.13814005 Ry
     estimated scf accuracy    <          4.0E-09 Ry

     iteration #  4     ecut=    18.00 Ry     beta= 0.70
     Davidson diagonalization with overlap
     ethr =  7.74E-12,  avg # of iterations =  2.1

     total cpu time spent up to now is     6837.0 secs

     total energy              =    -436.13814005 Ry
     Harris-Foulkes estimate   =    -436.13814005 Ry
     estimated scf accuracy    <          7.9E-10 Ry

     iteration #  5     ecut=    18.00 Ry     beta= 0.70
     Davidson diagonalization with overlap
     ethr =  1.52E-12,  avg # of iterations =  3.0

     total cpu time spent up to now is     6854.3 secs

     total energy              =    -436.13814005 Ry
     Harris-Foulkes estimate   =    -436.13814005 Ry
     estimated scf accuracy    <          1.0E-10 Ry

     iteration #  6     ecut=    18.00 Ry     beta= 0.70
     Davidson diagonalization with overlap
     ethr =  2.02E-13,  avg # of iterations =  2.0

     total cpu time spent up to now is     6869.7 secs

     total energy              =    -436.13814005 Ry
     Harris-Foulkes estimate   =    -436.13814005 Ry
     estimated scf accuracy    <          8.9E-12 Ry

     iteration #  7     ecut=    18.00 Ry     beta= 0.70
     Davidson diagonalization with overlap
     ethr =  1.00E-13,  avg # of iterations =  1.9

     total cpu time spent up to now is     6881.5 secs

     End of self-consistent calculation

     Number of k-points >= 100: set verbosity='high' to print the bands.

     highest occupied level (ev):    36.9398

!    total energy              =    -436.13814005 Ry
     Harris-Foulkes estimate   =    -436.13814005 Ry
     estimated scf accuracy    <          6.2E-13 Ry

     The total energy is the sum of the following terms:

     one-electron contribution =      71.99014092 Ry
     hartree contribution      =      48.59613422 Ry
     xc contribution           =    -126.82405134 Ry
     ewald contribution        =    -429.90036385 Ry

     convergence has been achieved in   7 iterations

     Forces acting on atoms (cartesian axes, Ry/au):

     atom    1 type  1   force =     0.00011890    0.00011890    0.00000000
     atom    2 type  1   force =    -0.00003200   -0.00003200    0.00000000
     atom    3 type  2   force =     0.00015275    0.00000607    0.00000000
     atom    4 type  2   force =     0.00000607    0.00015275    0.00000000
     atom    5 type  2   force =     0.00004769    0.00004769    0.00000000
     atom    6 type  2   force =    -0.00029340   -0.00029340    0.00000000

     Total force =     0.000504     Total SCF correction =     0.000005


     Computing stress (Cartesian axis) and pressure

          total   stress  (Ry/bohr**3)                   (kbar)     P=    0.06
   0.00000420   0.02148468   0.00000000          0.62   3160.50      0.00
   0.02148468   0.00000420   0.00000000       3160.50      0.62      0.00
   0.00000000   0.00000000  -0.00000723          0.00      0.00     -1.06


     number of scf cycles    =  36
     number of bfgs steps    =  27

     enthalpy old            =    -436.1381393033 Ry
     enthalpy new            =    -436.1381400504 Ry

     CASE: enthalpy_new < enthalpy_old

     new trust radius        =       0.0001430953 bohr
     new conv_thr            =            1.0E-12 Ry

     new unit-cell volume =    192.14285 a.u.^3 (    28.47263 Ang^3 )
     density =     17.57874 g/cm^3

CELL_PARAMETERS (alat=  9.11000000)
   0.715059852   0.000000000   0.000000000
   0.000000000   0.715059852   0.000000000
   0.000000000   0.000000000   0.497031953

ATOMIC_POSITIONS (crystal)
Sn       0.055069869   0.055069869   0.000000000
Sn       0.557511874   0.557511874   0.500000000
O        0.689099354   0.103813583   0.500000000
O        0.103813583   0.689099354   0.500000000
O        0.350799816   0.350799816   0.000000000
O        0.741705505   0.741705505   0.000000000



     Writing output data file SnO2.save
     Check: negative starting charge=   -0.000164
     NEW-OLD atomic charge density approx. for the potential

     Check: negative/imaginary core charge=   -0.001330    0.000000
     Check: negative starting charge=   -0.000164
     extrapolated charge   52.00038, renormalised to   52.00000

     total cpu time spent up to now is     6887.8 secs

     Self-consistent Calculation

     iteration #  1     ecut=    18.00 Ry     beta= 0.70
     Davidson diagonalization with overlap
     ethr =  1.00E-06,  avg # of iterations =  1.0

     Threshold (ethr) on eigenvalues was too large:
     Diagonalizing with lowered threshold

     Davidson diagonalization with overlap
     ethr =  1.48E-10,  avg # of iterations =  3.5

     total cpu time spent up to now is     6921.4 secs

     total energy              =    -436.13814009 Ry
     Harris-Foulkes estimate   =    -436.13812542 Ry
     estimated scf accuracy    <       0.00000003 Ry

     iteration #  2     ecut=    18.00 Ry     beta= 0.70
     Davidson diagonalization with overlap
     ethr =  6.09E-11,  avg # of iterations =  2.9

     total cpu time spent up to now is     6939.4 secs

     total energy              =    -436.13814010 Ry
     Harris-Foulkes estimate   =    -436.13814010 Ry
     estimated scf accuracy    <          8.4E-09 Ry

     iteration #  3     ecut=    18.00 Ry     beta= 0.70
     Davidson diagonalization with overlap
     ethr =  1.62E-11,  avg # of iterations =  2.8

     total cpu time spent up to now is     6955.6 secs

     total energy              =    -436.13814010 Ry
     Harris-Foulkes estimate   =    -436.13814010 Ry
     estimated scf accuracy    <          4.6E-10 Ry

     iteration #  4     ecut=    18.00 Ry     beta= 0.70
     Davidson diagonalization with overlap
     ethr =  8.77E-13,  avg # of iterations =  2.8

     total cpu time spent up to now is     6972.1 secs

     total energy              =    -436.13814010 Ry
     Harris-Foulkes estimate   =    -436.13814010 Ry
     estimated scf accuracy    <          5.3E-11 Ry

     iteration #  5     ecut=    18.00 Ry     beta= 0.70
     Davidson diagonalization with overlap
     ethr =  1.01E-13,  avg # of iterations =  2.9

     total cpu time spent up to now is     6988.4 secs

     total energy              =    -436.13814010 Ry
     Harris-Foulkes estimate   =    -436.13814010 Ry
     estimated scf accuracy    <          4.7E-12 Ry

     iteration #  6     ecut=    18.00 Ry     beta= 0.70
     Davidson diagonalization with overlap
     ethr =  1.00E-13,  avg # of iterations =  1.0

     total cpu time spent up to now is     6999.3 secs

     End of self-consistent calculation

     Number of k-points >= 100: set verbosity='high' to print the bands.

     highest occupied level (ev):    36.9390

!    total energy              =    -436.13814010 Ry
     Harris-Foulkes estimate   =    -436.13814010 Ry
     estimated scf accuracy    <          1.9E-13 Ry

     The total energy is the sum of the following terms:

     one-electron contribution =      71.98604326 Ry
     hartree contribution      =      48.59755034 Ry
     xc contribution           =    -126.82406712 Ry
     ewald contribution        =    -429.89766658 Ry

     convergence has been achieved in   6 iterations

     Forces acting on atoms (cartesian axes, Ry/au):

     atom    1 type  1   force =     0.00000878    0.00000878    0.00000000
     atom    2 type  1   force =    -0.00002614   -0.00002614    0.00000000
     atom    3 type  2   force =    -0.00000412    0.00001096    0.00000000
     atom    4 type  2   force =     0.00001096   -0.00000412    0.00000000
     atom    5 type  2   force =     0.00001195    0.00001195    0.00000000
     atom    6 type  2   force =    -0.00000143   -0.00000143    0.00000000

     Total force =     0.000046     Total SCF correction =     0.000002


     Computing stress (Cartesian axis) and pressure

          total   stress  (Ry/bohr**3)                   (kbar)     P=   -0.02
  -0.00000003   0.02148395   0.00000000         -0.00   3160.40      0.00
   0.02148395  -0.00000003   0.00000000       3160.40     -0.00      0.00
   0.00000000   0.00000000  -0.00000026          0.00      0.00     -0.04


     number of scf cycles    =  37
     number of bfgs steps    =  28

     enthalpy old            =    -436.1381400504 Ry
     enthalpy new            =    -436.1381401022 Ry

     CASE: enthalpy_new < enthalpy_old

     small trust_radius: resetting bfgs history

     new trust radius        =       0.0000369671 bohr
     new conv_thr            =            1.0E-12 Ry

     new unit-cell volume =    192.14137 a.u.^3 (    28.47241 Ang^3 )
     density =     17.57888 g/cm^3

CELL_PARAMETERS (alat=  9.11000000)
   0.715059404   0.000000000   0.000000000
   0.000000000   0.715059404   0.000000000
   0.000000000   0.000000000   0.497028751

ATOMIC_POSITIONS (crystal)
Sn       0.055071217   0.055071217   0.000000000
Sn       0.557507861   0.557507861   0.500000000
O        0.689098721   0.103815265   0.500000000
O        0.103815265   0.689098721   0.500000000
O        0.350801650   0.350801650   0.000000000
O        0.741705286   0.741705286   0.000000000



     Writing output data file SnO2.save
     Check: negative starting charge=   -0.000164
     NEW-OLD atomic charge density approx. for the potential

     Check: negative/imaginary core charge=   -0.001330    0.000000
     Check: negative starting charge=   -0.000164
     extrapolated charge   51.99960, renormalised to   52.00000

     total cpu time spent up to now is     7005.6 secs

     Self-consistent Calculation

     iteration #  1     ecut=    18.00 Ry     beta= 0.70
     Davidson diagonalization with overlap
     ethr =  1.00E-06,  avg # of iterations =  1.0

     Threshold (ethr) on eigenvalues was too large:
     Diagonalizing with lowered threshold

     Davidson diagonalization with overlap
     ethr =  3.28E-11,  avg # of iterations =  3.0

     total cpu time spent up to now is     7037.1 secs

     total energy              =    -436.13814009 Ry
     Harris-Foulkes estimate   =    -436.13815546 Ry
     estimated scf accuracy    <          5.7E-09 Ry

     iteration #  2     ecut=    18.00 Ry     beta= 0.70
     Davidson diagonalization with overlap
     ethr =  1.09E-11,  avg # of iterations =  3.1

     total cpu time spent up to now is     7056.3 secs

     total energy              =    -436.13814009 Ry
     Harris-Foulkes estimate   =    -436.13814010 Ry
     estimated scf accuracy    <          4.8E-09 Ry

     iteration #  3     ecut=    18.00 Ry     beta= 0.70
     Davidson diagonalization with overlap
     ethr =  9.15E-12,  avg # of iterations =  2.2

     total cpu time spent up to now is     7070.1 secs

     total energy              =    -436.13814009 Ry
     Harris-Foulkes estimate   =    -436.13814009 Ry
     estimated scf accuracy    <          3.8E-10 Ry

     iteration #  4     ecut=    18.00 Ry     beta= 0.70
     Davidson diagonalization with overlap
     ethr =  7.22E-13,  avg # of iterations =  2.0

     total cpu time spent up to now is     7085.3 secs

     total energy              =    -436.13814009 Ry
     Harris-Foulkes estimate   =    -436.13814009 Ry
     estimated scf accuracy    <          6.1E-11 Ry

     iteration #  5     ecut=    18.00 Ry     beta= 0.70
     Davidson diagonalization with overlap
     ethr =  1.17E-13,  avg # of iterations =  2.9

     total cpu time spent up to now is     7103.2 secs

     total energy              =    -436.13814009 Ry
     Harris-Foulkes estimate   =    -436.13814009 Ry
     estimated scf accuracy    <          3.1E-12 Ry

     iteration #  6     ecut=    18.00 Ry     beta= 0.70
     Davidson diagonalization with overlap
     ethr =  1.00E-13,  avg # of iterations =  1.0

     total cpu time spent up to now is     7114.3 secs

     End of self-consistent calculation

     Number of k-points >= 100: set verbosity='high' to print the bands.

     highest occupied level (ev):    36.9394

!    total energy              =    -436.13814009 Ry
     Harris-Foulkes estimate   =    -436.13814009 Ry
     estimated scf accuracy    <          4.2E-13 Ry

     The total energy is the sum of the following terms:

     one-electron contribution =      71.98755588 Ry
     hartree contribution      =      48.59732087 Ry
     xc contribution           =    -126.82419278 Ry
     ewald contribution        =    -429.89882406 Ry

     convergence has been achieved in   6 iterations

     Forces acting on atoms (cartesian axes, Ry/au):

     atom    1 type  1   force =    -0.00001893   -0.00001893    0.00000000
     atom    2 type  1   force =     0.00016823    0.00016823    0.00000000
     atom    3 type  2   force =     0.00002616   -0.00007827    0.00000000
     atom    4 type  2   force =    -0.00007827    0.00002616    0.00000000
     atom    5 type  2   force =    -0.00011977   -0.00011977    0.00000000
     atom    6 type  2   force =     0.00002258    0.00002258    0.00000000

     Total force =     0.000317     Total SCF correction =     0.000002


     Computing stress (Cartesian axis) and pressure

          total   stress  (Ry/bohr**3)                   (kbar)     P=    0.44
   0.00000207   0.02148349   0.00000000          0.30   3160.33      0.00
   0.02148349   0.00000207   0.00000000       3160.33      0.30      0.00
   0.00000000   0.00000000   0.00000474          0.00      0.00      0.70


     number of scf cycles    =  38
     number of bfgs steps    =  29

     enthalpy old            =    -436.1381401022 Ry
     enthalpy new            =    -436.1381400934 Ry

     CASE: enthalpy_new > enthalpy_old

     new trust radius        =       0.0000039417 bohr

     trust_radius < trust_radius_min

     resetting bfgs history

     Message from routine bfgs:
     history already reset at previous step: stopping
     new conv_thr            =            1.0E-12 Ry

     new unit-cell volume =    192.14137 a.u.^3 (    28.47241 Ang^3 )
     density =     17.57888 g/cm^3

CELL_PARAMETERS (alat=  9.11000000)
   0.715059404   0.000000000   0.000000000
   0.000000000   0.715059404   0.000000000
   0.000000000   0.000000000   0.497028751

ATOMIC_POSITIONS (crystal)
Sn       0.055071217   0.055071217   0.000000000
Sn       0.557507861   0.557507861   0.500000000
O        0.689098721   0.103815265   0.500000000
O        0.103815265   0.689098721   0.500000000
O        0.350801650   0.350801650   0.000000000
O        0.741705286   0.741705286   0.000000000



     Writing output data file SnO2.save
     Check: negative starting charge=   -0.000164
     NEW-OLD atomic charge density approx. for the potential

     Check: negative/imaginary core charge=   -0.001330    0.000000
     Check: negative starting charge=   -0.000164

     total cpu time spent up to now is     7120.4 secs

     Self-consistent Calculation

     iteration #  1     ecut=    18.00 Ry     beta= 0.70
     Davidson diagonalization with overlap
     ethr =  1.00E-06,  avg # of iterations =  1.0

     Threshold (ethr) on eigenvalues was too large:
     Diagonalizing with lowered threshold

     Davidson diagonalization with overlap

 %%%%%%%%%%%%%%%%%%%%%%%%%%%%%%%%%%%%%%%%%%%%%%%%%%%%%%%%%%%%%%%%%%%%%%%%%%%%%%
     Error in routine c_bands (1):
     too many bands are not converged
 %%%%%%%%%%%%%%%%%%%%%%%%%%%%%%%%%%%%%%%%%%%%%%%%%%%%%%%%%%%%%%%%%%%%%%%%%%%%%%

     stopping ...

 %%%%%%%%%%%%%%%%%%%%%%%%%%%%%%%%%%%%%%%%%%%%%%%%%%%%%%%%%%%%%%%%%%%%%%%%%%%%%%
     Error in routine c_bands (1):
     too many bands are not converged
 %%%%%%%%%%%%%%%%%%%%%%%%%%%%%%%%%%%%%%%%%%%%%%%%%%%%%%%%%%%%%%%%%%%%%%%%%%%%%%

     stopping ...
