
     Program PWSCF v.6.2.2 starts on 11Apr2018 at  2:27:51 

     This program is part of the open-source Quantum ESPRESSO suite
     for quantum simulation of materials; please cite
         "P. Giannozzi et al., J. Phys.:Condens. Matter 21 395502 (2009);
         "P. Giannozzi et al., J. Phys.:Condens. Matter 29 465901 (2017);
          URL http://www.quantum-espresso.org", 
     in publications or presentations arising from this work. More details at
     http://www.quantum-espresso.org/quote

     Parallel version (MPI), running on     2 processors

     MPI processes distributed on     1 nodes
     R & G space division:  proc/nbgrp/npool/nimage =       2
     Reading input from Conv_acell-ecut.in

     Current dimensions of program PWSCF are:
     Max number of different atomic species (ntypx) = 10
     Max number of k-points (npk) =  40000
     Max angular momentum in pseudopotentials (lmaxx) =  3

     Subspace diagonalization in iterative solution of the eigenvalue problem:
     a serial algorithm will be used

 
     Parallelization info
     --------------------
     sticks:   dense  smooth     PW     G-vecs:    dense   smooth      PW
     Min        1046    1046    304                24506    24506    3849
     Max        1047    1047    305                24509    24509    3850
     Sum        2093    2093    609                49015    49015    7699
 


     bravais-lattice index     =            6
     lattice parameter (alat)  =       9.1100  a.u.
     unit-cell volume          =     506.5589 (a.u.)^3
     number of atoms/cell      =            6
     number of atomic types    =            2
     number of electrons       =        52.00
     number of Kohn-Sham states=           26
     kinetic-energy cutoff     =      80.0000  Ry
     charge density cutoff     =     320.0000  Ry
     convergence threshold     =      1.0E-12
     mixing beta               =       0.7000
     number of iterations used =            8  plain     mixing
     Exchange-correlation      = PBE ( 1  4  3  4 0 0)
     nstep                     =           50


     celldm(1)=   9.110000  celldm(2)=   0.000000  celldm(3)=   0.670000
     celldm(4)=   0.000000  celldm(5)=   0.000000  celldm(6)=   0.000000

     crystal axes: (cart. coord. in units of alat)
               a(1) = (   1.000000   0.000000   0.000000 )  
               a(2) = (   0.000000   1.000000   0.000000 )  
               a(3) = (   0.000000   0.000000   0.670000 )  

     reciprocal axes: (cart. coord. in units 2 pi/alat)
               b(1) = (  1.000000  0.000000  0.000000 )  
               b(2) = (  0.000000  1.000000  0.000000 )  
               b(3) = (  0.000000  0.000000  1.492537 )  


     PseudoPot. # 1 for Sn read from file:
     ../../Pseudo_potentials/Sn_PBE.upf
     MD5 check sum: 78e6386ae56e929f0568ae8bf606a80c
     Pseudo is Norm-conserving + core correction, Zval = 14.0
     Generated using ONCVPSP code by D. R. Hamann
     Using radial grid of 1628 points,  6 beta functions with: 
                l(1) =   0
                l(2) =   0
                l(3) =   1
                l(4) =   1
                l(5) =   2
                l(6) =   2

     PseudoPot. # 2 for O  read from file:
     ../../Pseudo_potentials/O_PBE.upf
     MD5 check sum: 3e3f909f7470e8921608ab6b1f57bbae
     Pseudo is Norm-conserving + core correction, Zval =  6.0
     Generated using ONCVPSP code by D. R. Hamann
     Using radial grid of  936 points,  5 beta functions with: 
                l(1) =   0
                l(2) =   0
                l(3) =   1
                l(4) =   1
                l(5) =   2

     atomic species   valence    mass     pseudopotential
        Sn            14.00   118.71000     Sn( 1.00)
        O              6.00    15.99900     O ( 1.00)

      4 Sym. Ops. (no inversion) found



   Cartesian axes

     site n.     atom                  positions (alat units)
         1           Sn  tau(   1) = (   0.0000000   0.0000000   0.0000000  )
         2           Sn  tau(   2) = (   0.5000000   0.5000000   0.3350000  )
         3           O   tau(   3) = (   0.8060000   0.1930000   0.3350000  )
         4           O   tau(   4) = (   0.1930000   0.8060000   0.3350000  )
         5           O   tau(   5) = (   0.3060000   0.3060000   0.0000000  )
         6           O   tau(   6) = (   0.6930000   0.6930000   0.0000000  )

     number of k points=   301

     Number of k-points >= 100: set verbosity='high' to print them.

     Dense  grid:    49015 G-vectors     FFT dimensions: (  54,  54,  36)

     Estimated max dynamical RAM per process >     403.84 MB

     Estimated total dynamical RAM >     807.68 MB

     Initial potential from superposition of free atoms

     starting charge   51.99690, renormalised to   52.00000
     Starting wfc are   34 randomized atomic wfcs

     total cpu time spent up to now is       28.1 secs

     Self-consistent Calculation

     iteration #  1     ecut=    80.00 Ry     beta= 0.70
     Davidson diagonalization with overlap
     ethr =  1.00E-02,  avg # of iterations =  2.0

     total cpu time spent up to now is       88.8 secs

     total energy              =    -446.85057509 Ry
     Harris-Foulkes estimate   =    -448.03265021 Ry
     estimated scf accuracy    <       1.60480961 Ry

     iteration #  2     ecut=    80.00 Ry     beta= 0.70
     Davidson diagonalization with overlap
     ethr =  3.09E-03,  avg # of iterations =  3.1

     total cpu time spent up to now is      164.3 secs

     total energy              =    -447.26355533 Ry
     Harris-Foulkes estimate   =    -448.06175221 Ry
     estimated scf accuracy    <       1.64488007 Ry

     iteration #  3     ecut=    80.00 Ry     beta= 0.70
     Davidson diagonalization with overlap
     ethr =  3.09E-03,  avg # of iterations =  3.0

     total cpu time spent up to now is      234.3 secs

     total energy              =    -447.58635080 Ry
     Harris-Foulkes estimate   =    -447.58700727 Ry
     estimated scf accuracy    <       0.00601708 Ry

     iteration #  4     ecut=    80.00 Ry     beta= 0.70
     Davidson diagonalization with overlap
     ethr =  1.16E-05,  avg # of iterations =  3.0

     total cpu time spent up to now is      313.5 secs

     total energy              =    -447.58968369 Ry
     Harris-Foulkes estimate   =    -447.58994329 Ry
     estimated scf accuracy    <       0.00054825 Ry

     iteration #  5     ecut=    80.00 Ry     beta= 0.70
     Davidson diagonalization with overlap
     ethr =  1.05E-06,  avg # of iterations =  2.0

     total cpu time spent up to now is      371.8 secs

     total energy              =    -447.58971534 Ry
     Harris-Foulkes estimate   =    -447.58972971 Ry
     estimated scf accuracy    <       0.00004000 Ry

     iteration #  6     ecut=    80.00 Ry     beta= 0.70
     Davidson diagonalization with overlap
     ethr =  7.69E-08,  avg # of iterations =  3.4

     total cpu time spent up to now is      454.7 secs

     total energy              =    -447.58979060 Ry
     Harris-Foulkes estimate   =    -447.58979364 Ry
     estimated scf accuracy    <       0.00000856 Ry

     iteration #  7     ecut=    80.00 Ry     beta= 0.70
     Davidson diagonalization with overlap
     ethr =  1.65E-08,  avg # of iterations =  3.1

     total cpu time spent up to now is      524.7 secs

     total energy              =    -447.58979160 Ry
     Harris-Foulkes estimate   =    -447.58979268 Ry
     estimated scf accuracy    <       0.00000242 Ry

     iteration #  8     ecut=    80.00 Ry     beta= 0.70
     Davidson diagonalization with overlap
     ethr =  4.66E-09,  avg # of iterations =  3.0

     total cpu time spent up to now is      595.3 secs

     total energy              =    -447.58979222 Ry
     Harris-Foulkes estimate   =    -447.58979227 Ry
     estimated scf accuracy    <       0.00000014 Ry

     iteration #  9     ecut=    80.00 Ry     beta= 0.70
     Davidson diagonalization with overlap
     ethr =  2.67E-10,  avg # of iterations =  2.2

     total cpu time spent up to now is      662.7 secs

     total energy              =    -447.58979223 Ry
     Harris-Foulkes estimate   =    -447.58979224 Ry
     estimated scf accuracy    <       0.00000001 Ry

     iteration # 10     ecut=    80.00 Ry     beta= 0.70
     Davidson diagonalization with overlap
     ethr =  2.39E-11,  avg # of iterations =  3.0

     total cpu time spent up to now is      739.2 secs

     total energy              =    -447.58979224 Ry
     Harris-Foulkes estimate   =    -447.58979224 Ry
     estimated scf accuracy    <          1.2E-09 Ry

     iteration # 11     ecut=    80.00 Ry     beta= 0.70
     Davidson diagonalization with overlap
     ethr =  2.40E-12,  avg # of iterations =  3.6

     total cpu time spent up to now is      816.3 secs

     total energy              =    -447.58979224 Ry
     Harris-Foulkes estimate   =    -447.58979224 Ry
     estimated scf accuracy    <          1.9E-10 Ry

     iteration # 12     ecut=    80.00 Ry     beta= 0.70
     Davidson diagonalization with overlap
     ethr =  3.67E-13,  avg # of iterations =  3.0

     total cpu time spent up to now is      889.5 secs

     total energy              =    -447.58979224 Ry
     Harris-Foulkes estimate   =    -447.58979224 Ry
     estimated scf accuracy    <          5.3E-12 Ry

     iteration # 13     ecut=    80.00 Ry     beta= 0.70
     Davidson diagonalization with overlap
     ethr =  1.00E-13,  avg # of iterations =  1.7

     total cpu time spent up to now is      945.2 secs

     End of self-consistent calculation

     Number of k-points >= 100: set verbosity='high' to print the bands.

     highest occupied level (ev):     9.0669

!    total energy              =    -447.58979224 Ry
     Harris-Foulkes estimate   =    -447.58979224 Ry
     estimated scf accuracy    <          7.9E-13 Ry

     The total energy is the sum of the following terms:

     one-electron contribution =    -124.05149268 Ry
     hartree contribution      =     101.06747599 Ry
     xc contribution           =    -122.12443974 Ry
     ewald contribution        =    -302.48133580 Ry

     convergence has been achieved in  13 iterations

     Forces acting on atoms (cartesian axes, Ry/au):

     atom    1 type  1   force =    -0.00106095   -0.00106095    0.00000000
     atom    2 type  1   force =    -0.00135282   -0.00135282    0.00000000
     atom    3 type  2   force =    -0.00044979    0.00041695    0.00000000
     atom    4 type  2   force =     0.00041695   -0.00044979    0.00000000
     atom    5 type  2   force =     0.00079465    0.00079465    0.00000000
     atom    6 type  2   force =     0.00165196    0.00165196    0.00000000

     Total force =     0.003659     Total SCF correction =     0.000004


     Computing stress (Cartesian axis) and pressure

          total   stress  (Ry/bohr**3)                   (kbar)     P=   19.98
   0.00011092   0.00000011  -0.00000000         16.32      0.02     -0.00
   0.00000011   0.00011092   0.00000000          0.02     16.32      0.00
  -0.00000000   0.00000000   0.00018554         -0.00      0.00     27.29


     BFGS Geometry Optimization

     number of scf cycles    =   1
     number of bfgs steps    =   0

     enthalpy new            =    -447.5897922365 Ry

     new trust radius        =       0.0208791498 bohr
     new conv_thr            =            1.0E-12 Ry

     new unit-cell volume =    511.73479 a.u.^3 (    75.83127 Ang^3 )
     density =      6.60035 g/cm^3

CELL_PARAMETERS (alat=  9.11000000)
   1.002772973   0.000000000   0.000000000
   0.000000000   1.002772973   0.000000000
   0.000000000   0.000000000   0.673107726

ATOMIC_POSITIONS (crystal)
Sn      -0.000116460  -0.000116460   0.000000000
Sn       0.499851502   0.499851502   0.500000000
O        0.805950626   0.193045769   0.500000000
O        0.193045769   0.805950626   0.500000000
O        0.306087228   0.306087228   0.000000000
O        0.693181335   0.693181335   0.000000000



     Writing output data file SnO2.save
     NEW-OLD atomic charge density approx. for the potential
     extrapolated charge   52.52592, renormalised to   52.00000

     total cpu time spent up to now is      974.3 secs

     Self-consistent Calculation

     iteration #  1     ecut=    80.00 Ry     beta= 0.70
     Davidson diagonalization with overlap
     ethr =  1.00E-06,  avg # of iterations =  4.1

     total cpu time spent up to now is     1087.0 secs

     total energy              =    -447.57530262 Ry
     Harris-Foulkes estimate   =    -446.42868065 Ry
     estimated scf accuracy    <       0.00918164 Ry

     iteration #  2     ecut=    80.00 Ry     beta= 0.70
     Davidson diagonalization with overlap
     ethr =  1.77E-05,  avg # of iterations =  4.0

     total cpu time spent up to now is     1179.0 secs

     total energy              =    -447.58932626 Ry
     Harris-Foulkes estimate   =    -447.59828777 Ry
     estimated scf accuracy    <       0.02455771 Ry

     iteration #  3     ecut=    80.00 Ry     beta= 0.70
     Davidson diagonalization with overlap
     ethr =  1.77E-05,  avg # of iterations =  2.0

     total cpu time spent up to now is     1247.5 secs

     total energy              =    -447.59066585 Ry
     Harris-Foulkes estimate   =    -447.59144007 Ry
     estimated scf accuracy    <       0.00312118 Ry

     iteration #  4     ecut=    80.00 Ry     beta= 0.70
     Davidson diagonalization with overlap
     ethr =  6.00E-06,  avg # of iterations =  1.0

     total cpu time spent up to now is     1300.8 secs

     total energy              =    -447.59012035 Ry
     Harris-Foulkes estimate   =    -447.59074465 Ry
     estimated scf accuracy    <       0.00167495 Ry

     iteration #  5     ecut=    80.00 Ry     beta= 0.70
     Davidson diagonalization with overlap
     ethr =  3.22E-06,  avg # of iterations =  2.0

     total cpu time spent up to now is     1363.5 secs

     total energy              =    -447.59014140 Ry
     Harris-Foulkes estimate   =    -447.59025325 Ry
     estimated scf accuracy    <       0.00024930 Ry

     iteration #  6     ecut=    80.00 Ry     beta= 0.70
     Davidson diagonalization with overlap
     ethr =  4.79E-07,  avg # of iterations =  3.0

     total cpu time spent up to now is     1433.4 secs

     total energy              =    -447.59017693 Ry
     Harris-Foulkes estimate   =    -447.59018048 Ry
     estimated scf accuracy    <       0.00001191 Ry

     iteration #  7     ecut=    80.00 Ry     beta= 0.70
     Davidson diagonalization with overlap
     ethr =  2.29E-08,  avg # of iterations =  2.0

     total cpu time spent up to now is     1495.3 secs

     total energy              =    -447.59017536 Ry
     Harris-Foulkes estimate   =    -447.59017779 Ry
     estimated scf accuracy    <       0.00000629 Ry

     iteration #  8     ecut=    80.00 Ry     beta= 0.70
     Davidson diagonalization with overlap
     ethr =  1.21E-08,  avg # of iterations =  1.7

     total cpu time spent up to now is     1552.2 secs

     total energy              =    -447.59017501 Ry
     Harris-Foulkes estimate   =    -447.59017575 Ry
     estimated scf accuracy    <       0.00000144 Ry

     iteration #  9     ecut=    80.00 Ry     beta= 0.70
     Davidson diagonalization with overlap
     ethr =  2.76E-09,  avg # of iterations =  2.1

     total cpu time spent up to now is     1623.3 secs

     total energy              =    -447.59017534 Ry
     Harris-Foulkes estimate   =    -447.59017534 Ry
     estimated scf accuracy    <          7.3E-09 Ry

     iteration # 10     ecut=    80.00 Ry     beta= 0.70
     Davidson diagonalization with overlap
     ethr =  1.40E-11,  avg # of iterations =  3.5

     total cpu time spent up to now is     1702.0 secs

     total energy              =    -447.59017534 Ry
     Harris-Foulkes estimate   =    -447.59017535 Ry
     estimated scf accuracy    <          6.4E-09 Ry

     iteration # 11     ecut=    80.00 Ry     beta= 0.70
     Davidson diagonalization with overlap
     ethr =  1.23E-11,  avg # of iterations =  2.0

     total cpu time spent up to now is     1760.4 secs

     total energy              =    -447.59017534 Ry
     Harris-Foulkes estimate   =    -447.59017534 Ry
     estimated scf accuracy    <          1.5E-09 Ry

     iteration # 12     ecut=    80.00 Ry     beta= 0.70
     Davidson diagonalization with overlap
     ethr =  2.97E-12,  avg # of iterations =  3.0

     total cpu time spent up to now is     1833.5 secs

     total energy              =    -447.59017534 Ry
     Harris-Foulkes estimate   =    -447.59017534 Ry
     estimated scf accuracy    <          4.0E-11 Ry

     iteration # 13     ecut=    80.00 Ry     beta= 0.70
     Davidson diagonalization with overlap
     ethr =  1.00E-13,  avg # of iterations =  2.0

     total cpu time spent up to now is     1896.2 secs

     total energy              =    -447.59017534 Ry
     Harris-Foulkes estimate   =    -447.59017534 Ry
     estimated scf accuracy    <          1.3E-11 Ry

     iteration # 14     ecut=    80.00 Ry     beta= 0.70
     Davidson diagonalization with overlap
     ethr =  1.00E-13,  avg # of iterations =  1.1

     total cpu time spent up to now is     1952.3 secs

     End of self-consistent calculation

     Number of k-points >= 100: set verbosity='high' to print the bands.

     highest occupied level (ev):     8.9196

!    total energy              =    -447.59017534 Ry
     Harris-Foulkes estimate   =    -447.59017534 Ry
     estimated scf accuracy    <          4.1E-13 Ry

     The total energy is the sum of the following terms:

     one-electron contribution =    -125.45543475 Ry
     hartree contribution      =     101.46433818 Ry
     xc contribution           =    -122.07671328 Ry
     ewald contribution        =    -301.52236549 Ry

     convergence has been achieved in  14 iterations

     Forces acting on atoms (cartesian axes, Ry/au):

     atom    1 type  1   force =    -0.00059606   -0.00059606    0.00000000
     atom    2 type  1   force =    -0.00046862   -0.00046862    0.00000000
     atom    3 type  2   force =     0.00093209   -0.00077071    0.00000000
     atom    4 type  2   force =    -0.00077071    0.00093209    0.00000000
     atom    5 type  2   force =     0.00130173    0.00130173    0.00000000
     atom    6 type  2   force =    -0.00039844   -0.00039844    0.00000000

     Total force =     0.002790     Total SCF correction =     0.000001


     Computing stress (Cartesian axis) and pressure

          total   stress  (Ry/bohr**3)                   (kbar)     P=    0.10
  -0.00000213   0.00000003   0.00000000         -0.31      0.00      0.00
   0.00000003  -0.00000213   0.00000000          0.00     -0.31      0.00
   0.00000000   0.00000000   0.00000629          0.00      0.00      0.92


     number of scf cycles    =   2
     number of bfgs steps    =   1

     enthalpy old            =    -447.5897922365 Ry
     enthalpy new            =    -447.5901753441 Ry

     CASE: enthalpy_new < enthalpy_old

     new trust radius        =       0.0018900163 bohr
     new conv_thr            =            1.0E-12 Ry

     new unit-cell volume =    511.81912 a.u.^3 (    75.84377 Ang^3 )
     density =      6.59926 g/cm^3

CELL_PARAMETERS (alat=  9.11000000)
   1.002749654   0.000000000   0.000000000
   0.000000000   1.002749654   0.000000000
   0.000000000   0.000000000   0.673249952

ATOMIC_POSITIONS (crystal)
Sn      -0.000184306  -0.000184306   0.000000000
Sn       0.499797523   0.499797523   0.500000000
O        0.806054125   0.192960246   0.500000000
O        0.192960246   0.806054125   0.500000000
O        0.306233524   0.306233524   0.000000000
O        0.693138889   0.693138889   0.000000000



     Writing output data file SnO2.save
     NEW-OLD atomic charge density approx. for the potential
     extrapolated charge   52.00857, renormalised to   52.00000

     total cpu time spent up to now is     1980.7 secs

     Self-consistent Calculation

     iteration #  1     ecut=    80.00 Ry     beta= 0.70
     Davidson diagonalization with overlap
     ethr =  1.00E-06,  avg # of iterations =  3.0

     Threshold (ethr) on eigenvalues was too large:
     Diagonalizing with lowered threshold

     Davidson diagonalization with overlap
     ethr =  4.91E-09,  avg # of iterations =  2.9

     total cpu time spent up to now is     2135.5 secs

     total energy              =    -447.59017840 Ry
     Harris-Foulkes estimate   =    -447.57128289 Ry
     estimated scf accuracy    <       0.00000292 Ry

     iteration #  2     ecut=    80.00 Ry     beta= 0.70
     Davidson diagonalization with overlap
     ethr =  5.61E-09,  avg # of iterations =  4.0

     total cpu time spent up to now is     2230.1 secs

     total energy              =    -447.59018184 Ry
     Harris-Foulkes estimate   =    -447.59018426 Ry
     estimated scf accuracy    <       0.00000639 Ry

     iteration #  3     ecut=    80.00 Ry     beta= 0.70
     Davidson diagonalization with overlap
     ethr =  5.61E-09,  avg # of iterations =  2.0

     total cpu time spent up to now is     2299.5 secs

     total energy              =    -447.59018220 Ry
     Harris-Foulkes estimate   =    -447.59018245 Ry
     estimated scf accuracy    <       0.00000068 Ry

     iteration #  4     ecut=    80.00 Ry     beta= 0.70
     Davidson diagonalization with overlap
     ethr =  1.32E-09,  avg # of iterations =  2.0

     total cpu time spent up to now is     2362.1 secs

     total energy              =    -447.59018212 Ry
     Harris-Foulkes estimate   =    -447.59018224 Ry
     estimated scf accuracy    <       0.00000024 Ry

     iteration #  5     ecut=    80.00 Ry     beta= 0.70
     Davidson diagonalization with overlap
     ethr =  4.55E-10,  avg # of iterations =  2.3

     total cpu time spent up to now is     2431.9 secs

     total energy              =    -447.59018217 Ry
     Harris-Foulkes estimate   =    -447.59018217 Ry
     estimated scf accuracy    <          1.4E-09 Ry

     iteration #  6     ecut=    80.00 Ry     beta= 0.70
     Davidson diagonalization with overlap
     ethr =  2.61E-12,  avg # of iterations =  3.8

     total cpu time spent up to now is     2522.4 secs

     total energy              =    -447.59018217 Ry
     Harris-Foulkes estimate   =    -447.59018217 Ry
     estimated scf accuracy    <          8.4E-10 Ry

     iteration #  7     ecut=    80.00 Ry     beta= 0.70
     Davidson diagonalization with overlap
     ethr =  1.61E-12,  avg # of iterations =  3.0

     total cpu time spent up to now is     2591.6 secs

     total energy              =    -447.59018217 Ry
     Harris-Foulkes estimate   =    -447.59018217 Ry
     estimated scf accuracy    <          1.1E-10 Ry

     iteration #  8     ecut=    80.00 Ry     beta= 0.70
     Davidson diagonalization with overlap
     ethr =  2.09E-13,  avg # of iterations =  3.0

     total cpu time spent up to now is     2660.0 secs

     total energy              =    -447.59018217 Ry
     Harris-Foulkes estimate   =    -447.59018217 Ry
     estimated scf accuracy    <          5.8E-12 Ry

     iteration #  9     ecut=    80.00 Ry     beta= 0.70
     Davidson diagonalization with overlap
     ethr =  1.00E-13,  avg # of iterations =  1.0

     total cpu time spent up to now is     2709.8 secs

     End of self-consistent calculation

     Number of k-points >= 100: set verbosity='high' to print the bands.

     highest occupied level (ev):     8.9169

!    total energy              =    -447.59018217 Ry
     Harris-Foulkes estimate   =    -447.59018217 Ry
     estimated scf accuracy    <          8.2E-13 Ry

     The total energy is the sum of the following terms:

     one-electron contribution =    -125.48737891 Ry
     hartree contribution      =     101.47613210 Ry
     xc contribution           =    -122.07614086 Ry
     ewald contribution        =    -301.50279451 Ry

     convergence has been achieved in   9 iterations

     Forces acting on atoms (cartesian axes, Ry/au):

     atom    1 type  1   force =    -0.00033797   -0.00033797    0.00000000
     atom    2 type  1   force =    -0.00020272   -0.00020272    0.00000000
     atom    3 type  2   force =     0.00062968   -0.00041819    0.00000000
     atom    4 type  2   force =    -0.00041819    0.00062968    0.00000000
     atom    5 type  2   force =     0.00068685    0.00068685    0.00000000
     atom    6 type  2   force =    -0.00035765   -0.00035765    0.00000000

     Total force =     0.001629     Total SCF correction =     0.000004


     Computing stress (Cartesian axis) and pressure

          total   stress  (Ry/bohr**3)                   (kbar)     P=   -0.10
  -0.00000263   0.00000001   0.00000000         -0.39      0.00      0.00
   0.00000001  -0.00000263   0.00000000          0.00     -0.39      0.00
   0.00000000  -0.00000000   0.00000313          0.00     -0.00      0.46


     number of scf cycles    =   3
     number of bfgs steps    =   2

     enthalpy old            =    -447.5901753441 Ry
     enthalpy new            =    -447.5901821747 Ry

     CASE: enthalpy_new < enthalpy_old

     new trust radius        =       0.0024507255 bohr
     new conv_thr            =            1.0E-12 Ry

     new unit-cell volume =    511.84041 a.u.^3 (    75.84692 Ang^3 )
     density =      6.59899 g/cm^3

CELL_PARAMETERS (alat=  9.11000000)
   1.002635070   0.000000000   0.000000000
   0.000000000   1.002635070   0.000000000
   0.000000000   0.000000000   0.673431859

ATOMIC_POSITIONS (crystal)
Sn      -0.000278454  -0.000278454   0.000000000
Sn       0.499738819   0.499738819   0.500000000
O        0.806223684   0.192846534   0.500000000
O        0.192846534   0.806223684   0.500000000
O        0.306423224   0.306423224   0.000000000
O        0.693046193   0.693046193   0.000000000



     Writing output data file SnO2.save
     NEW-OLD atomic charge density approx. for the potential
     extrapolated charge   52.00216, renormalised to   52.00000

     total cpu time spent up to now is     2735.4 secs

     Self-consistent Calculation

     iteration #  1     ecut=    80.00 Ry     beta= 0.70
     Davidson diagonalization with overlap
     ethr =  1.00E-06,  avg # of iterations =  3.0

     Threshold (ethr) on eigenvalues was too large:
     Diagonalizing with lowered threshold

     Davidson diagonalization with overlap
     ethr =  3.46E-09,  avg # of iterations =  3.0

     total cpu time spent up to now is     2880.6 secs

     total energy              =    -447.59018546 Ry
     Harris-Foulkes estimate   =    -447.58541362 Ry
     estimated scf accuracy    <       0.00000198 Ry

     iteration #  2     ecut=    80.00 Ry     beta= 0.70
     Davidson diagonalization with overlap
     ethr =  3.81E-09,  avg # of iterations =  2.2

     total cpu time spent up to now is     2950.1 secs

     total energy              =    -447.59018586 Ry
     Harris-Foulkes estimate   =    -447.59018611 Ry
     estimated scf accuracy    <       0.00000043 Ry

     iteration #  3     ecut=    80.00 Ry     beta= 0.70
     Davidson diagonalization with overlap
     ethr =  8.31E-10,  avg # of iterations =  3.0

     total cpu time spent up to now is     3015.3 secs

     total energy              =    -447.59018596 Ry
     Harris-Foulkes estimate   =    -447.59018601 Ry
     estimated scf accuracy    <       0.00000010 Ry

     iteration #  4     ecut=    80.00 Ry     beta= 0.70
     Davidson diagonalization with overlap
     ethr =  1.85E-10,  avg # of iterations =  3.0

     total cpu time spent up to now is     3082.6 secs

     total energy              =    -447.59018598 Ry
     Harris-Foulkes estimate   =    -447.59018599 Ry
     estimated scf accuracy    <       0.00000002 Ry

     iteration #  5     ecut=    80.00 Ry     beta= 0.70
     Davidson diagonalization with overlap
     ethr =  3.48E-11,  avg # of iterations =  3.4

     total cpu time spent up to now is     3149.7 secs

     total energy              =    -447.59018598 Ry
     Harris-Foulkes estimate   =    -447.59018599 Ry
     estimated scf accuracy    <          5.7E-09 Ry

     iteration #  6     ecut=    80.00 Ry     beta= 0.70
     Davidson diagonalization with overlap
     ethr =  1.10E-11,  avg # of iterations =  3.0

     total cpu time spent up to now is     3212.5 secs

     total energy              =    -447.59018598 Ry
     Harris-Foulkes estimate   =    -447.59018598 Ry
     estimated scf accuracy    <          9.6E-11 Ry

     iteration #  7     ecut=    80.00 Ry     beta= 0.70
     Davidson diagonalization with overlap
     ethr =  1.84E-13,  avg # of iterations =  2.9

     total cpu time spent up to now is     3285.2 secs

     total energy              =    -447.59018598 Ry
     Harris-Foulkes estimate   =    -447.59018598 Ry
     estimated scf accuracy    <          1.5E-11 Ry

     iteration #  8     ecut=    80.00 Ry     beta= 0.70
     Davidson diagonalization with overlap
     ethr =  1.00E-13,  avg # of iterations =  2.4

     total cpu time spent up to now is     3341.5 secs

     total energy              =    -447.59018598 Ry
     Harris-Foulkes estimate   =    -447.59018598 Ry
     estimated scf accuracy    <          3.6E-12 Ry

     iteration #  9     ecut=    80.00 Ry     beta= 0.70
     Davidson diagonalization with overlap
     ethr =  1.00E-13,  avg # of iterations =  1.0

     total cpu time spent up to now is     3390.8 secs

     End of self-consistent calculation

     Number of k-points >= 100: set verbosity='high' to print the bands.

     highest occupied level (ev):     8.9160

!    total energy              =    -447.59018598 Ry
     Harris-Foulkes estimate   =    -447.59018598 Ry
     estimated scf accuracy    <          2.1E-13 Ry

     The total energy is the sum of the following terms:

     one-electron contribution =    -125.50264652 Ry
     hartree contribution      =     101.48371136 Ry
     xc contribution           =    -122.07618314 Ry
     ewald contribution        =    -301.49506769 Ry

     convergence has been achieved in   9 iterations

     Forces acting on atoms (cartesian axes, Ry/au):

     atom    1 type  1   force =     0.00000598    0.00000598    0.00000000
     atom    2 type  1   force =     0.00002490    0.00002490    0.00000000
     atom    3 type  2   force =     0.00012933    0.00009939   -0.00000000
     atom    4 type  2   force =     0.00009939    0.00012933    0.00000000
     atom    5 type  2   force =    -0.00011407   -0.00011407    0.00000000
     atom    6 type  2   force =    -0.00014552   -0.00014552    0.00000000

     Total force =     0.000351     Total SCF correction =     0.000001


     Computing stress (Cartesian axis) and pressure

          total   stress  (Ry/bohr**3)                   (kbar)     P=   -0.04
  -0.00000098  -0.00000000  -0.00000000         -0.14     -0.00     -0.00
  -0.00000000  -0.00000098   0.00000000         -0.00     -0.14      0.00
   0.00000000  -0.00000000   0.00000111          0.00     -0.00      0.16


     number of scf cycles    =   4
     number of bfgs steps    =   3

     enthalpy old            =    -447.5901821747 Ry
     enthalpy new            =    -447.5901859847 Ry

     CASE: enthalpy_new < enthalpy_old

     new trust radius        =       0.0002597624 bohr
     new conv_thr            =            1.0E-12 Ry

     new unit-cell volume =    511.83236 a.u.^3 (    75.84573 Ang^3 )
     density =      6.59909 g/cm^3

CELL_PARAMETERS (alat=  9.11000000)
   1.002606234   0.000000000   0.000000000
   0.000000000   1.002606234   0.000000000
   0.000000000   0.000000000   0.673460008

ATOMIC_POSITIONS (crystal)
Sn      -0.000282056  -0.000282056   0.000000000
Sn       0.499738636   0.499738636   0.500000000
O        0.806245613   0.192852623   0.500000000
O        0.192852623   0.806245613   0.500000000
O        0.306419099   0.306419099   0.000000000
O        0.693026084   0.693026084   0.000000000



     Writing output data file SnO2.save
     NEW-OLD atomic charge density approx. for the potential
     extrapolated charge   51.99918, renormalised to   52.00000

     total cpu time spent up to now is     3416.4 secs

     Self-consistent Calculation

     iteration #  1     ecut=    80.00 Ry     beta= 0.70
     Davidson diagonalization with overlap
     ethr =  1.00E-06,  avg # of iterations =  1.0

     Threshold (ethr) on eigenvalues was too large:
     Diagonalizing with lowered threshold

     Davidson diagonalization with overlap
     ethr =  1.37E-10,  avg # of iterations =  4.0

     total cpu time spent up to now is     3555.6 secs

     total energy              =    -447.59018609 Ry
     Harris-Foulkes estimate   =    -447.59199005 Ry
     estimated scf accuracy    <       0.00000005 Ry

     iteration #  2     ecut=    80.00 Ry     beta= 0.70
     Davidson diagonalization with overlap
     ethr =  8.81E-11,  avg # of iterations =  3.1

     total cpu time spent up to now is     3635.0 secs

     total energy              =    -447.59018612 Ry
     Harris-Foulkes estimate   =    -447.59018615 Ry
     estimated scf accuracy    <       0.00000006 Ry

     iteration #  3     ecut=    80.00 Ry     beta= 0.70
     Davidson diagonalization with overlap
     ethr =  8.81E-11,  avg # of iterations =  2.0

     total cpu time spent up to now is     3696.8 secs

     total energy              =    -447.59018613 Ry
     Harris-Foulkes estimate   =    -447.59018613 Ry
     estimated scf accuracy    <          4.1E-09 Ry

     iteration #  4     ecut=    80.00 Ry     beta= 0.70
     Davidson diagonalization with overlap
     ethr =  7.84E-12,  avg # of iterations =  2.6

     total cpu time spent up to now is     3763.9 secs

     total energy              =    -447.59018613 Ry
     Harris-Foulkes estimate   =    -447.59018613 Ry
     estimated scf accuracy    <          1.7E-09 Ry

     iteration #  5     ecut=    80.00 Ry     beta= 0.70
     Davidson diagonalization with overlap
     ethr =  3.24E-12,  avg # of iterations =  3.0

     total cpu time spent up to now is     3826.9 secs

     total energy              =    -447.59018613 Ry
     Harris-Foulkes estimate   =    -447.59018613 Ry
     estimated scf accuracy    <          3.8E-10 Ry

     iteration #  6     ecut=    80.00 Ry     beta= 0.70
     Davidson diagonalization with overlap
     ethr =  7.33E-13,  avg # of iterations =  2.8

     total cpu time spent up to now is     3890.0 secs

     total energy              =    -447.59018613 Ry
     Harris-Foulkes estimate   =    -447.59018613 Ry
     estimated scf accuracy    <          4.5E-12 Ry

     iteration #  7     ecut=    80.00 Ry     beta= 0.70
     Davidson diagonalization with overlap
     ethr =  1.00E-13,  avg # of iterations =  1.4

     total cpu time spent up to now is     3940.0 secs

     End of self-consistent calculation

     Number of k-points >= 100: set verbosity='high' to print the bands.

     highest occupied level (ev):     8.9162

!    total energy              =    -447.59018613 Ry
     Harris-Foulkes estimate   =    -447.59018613 Ry
     estimated scf accuracy    <          5.8E-13 Ry

     The total energy is the sum of the following terms:

     one-electron contribution =    -125.49788592 Ry
     hartree contribution      =     101.48192564 Ry
     xc contribution           =    -122.07622665 Ry
     ewald contribution        =    -301.49799920 Ry

     convergence has been achieved in   7 iterations

     Forces acting on atoms (cartesian axes, Ry/au):

     atom    1 type  1   force =     0.00000004    0.00000004    0.00000000
     atom    2 type  1   force =    -0.00001950   -0.00001950    0.00000000
     atom    3 type  2   force =     0.00008615    0.00011068    0.00000000
     atom    4 type  2   force =     0.00011068    0.00008615    0.00000000
     atom    5 type  2   force =    -0.00010073   -0.00010073    0.00000000
     atom    6 type  2   force =    -0.00007664   -0.00007664    0.00000000

     Total force =     0.000269     Total SCF correction =     0.000004


     Computing stress (Cartesian axis) and pressure

          total   stress  (Ry/bohr**3)                   (kbar)     P=   -0.02
  -0.00000058  -0.00000000   0.00000000         -0.09     -0.00      0.00
  -0.00000000  -0.00000058   0.00000000         -0.00     -0.09      0.00
   0.00000000   0.00000000   0.00000070          0.00      0.00      0.10


     number of scf cycles    =   5
     number of bfgs steps    =   4

     enthalpy old            =    -447.5901859847 Ry
     enthalpy new            =    -447.5901861304 Ry

     CASE: enthalpy_new < enthalpy_old

     new trust radius        =       0.0002857304 bohr
     new conv_thr            =            1.0E-12 Ry

     new unit-cell volume =    511.82189 a.u.^3 (    75.84418 Ang^3 )
     density =      6.59923 g/cm^3

CELL_PARAMETERS (alat=  9.11000000)
   1.002572694   0.000000000   0.000000000
   0.000000000   1.002572694   0.000000000
   0.000000000   0.000000000   0.673491288

ATOMIC_POSITIONS (crystal)
Sn      -0.000285450  -0.000285450   0.000000000
Sn       0.499733345   0.499733345   0.500000000
O        0.806270957   0.192870962   0.500000000
O        0.192870962   0.806270957   0.500000000
O        0.306405157   0.306405157   0.000000000
O        0.693005029   0.693005029   0.000000000



     Writing output data file SnO2.save
     NEW-OLD atomic charge density approx. for the potential
     extrapolated charge   51.99894, renormalised to   52.00000

     total cpu time spent up to now is     3965.5 secs

     Self-consistent Calculation

     iteration #  1     ecut=    80.00 Ry     beta= 0.70
     Davidson diagonalization with overlap
     ethr =  1.00E-06,  avg # of iterations =  1.8

     Threshold (ethr) on eigenvalues was too large:
     Diagonalizing with lowered threshold

     Davidson diagonalization with overlap
     ethr =  2.30E-10,  avg # of iterations =  4.0

     total cpu time spent up to now is     4105.9 secs

     total energy              =    -447.59018620 Ry
     Harris-Foulkes estimate   =    -447.59253353 Ry
     estimated scf accuracy    <       0.00000007 Ry

     iteration #  2     ecut=    80.00 Ry     beta= 0.70
     Davidson diagonalization with overlap
     ethr =  1.34E-10,  avg # of iterations =  3.3

     total cpu time spent up to now is     4185.7 secs

     total energy              =    -447.59018625 Ry
     Harris-Foulkes estimate   =    -447.59018629 Ry
     estimated scf accuracy    <       0.00000010 Ry

     iteration #  3     ecut=    80.00 Ry     beta= 0.70
     Davidson diagonalization with overlap
     ethr =  1.34E-10,  avg # of iterations =  2.0

     total cpu time spent up to now is     4247.3 secs

     total energy              =    -447.59018626 Ry
     Harris-Foulkes estimate   =    -447.59018626 Ry
     estimated scf accuracy    <          7.2E-09 Ry

     iteration #  4     ecut=    80.00 Ry     beta= 0.70
     Davidson diagonalization with overlap
     ethr =  1.39E-11,  avg # of iterations =  2.2

     total cpu time spent up to now is     4312.0 secs

     total energy              =    -447.59018626 Ry
     Harris-Foulkes estimate   =    -447.59018626 Ry
     estimated scf accuracy    <          2.6E-09 Ry

     iteration #  5     ecut=    80.00 Ry     beta= 0.70
     Davidson diagonalization with overlap
     ethr =  5.01E-12,  avg # of iterations =  3.0

     total cpu time spent up to now is     4375.3 secs

     total energy              =    -447.59018626 Ry
     Harris-Foulkes estimate   =    -447.59018626 Ry
     estimated scf accuracy    <          5.6E-10 Ry

     iteration #  6     ecut=    80.00 Ry     beta= 0.70
     Davidson diagonalization with overlap
     ethr =  1.07E-12,  avg # of iterations =  2.9

     total cpu time spent up to now is     4438.5 secs

     total energy              =    -447.59018626 Ry
     Harris-Foulkes estimate   =    -447.59018626 Ry
     estimated scf accuracy    <          1.0E-11 Ry

     iteration #  7     ecut=    80.00 Ry     beta= 0.70
     Davidson diagonalization with overlap
     ethr =  1.00E-13,  avg # of iterations =  2.0

     total cpu time spent up to now is     4491.8 secs

     End of self-consistent calculation

     Number of k-points >= 100: set verbosity='high' to print the bands.

     highest occupied level (ev):     8.9165

!    total energy              =    -447.59018626 Ry
     Harris-Foulkes estimate   =    -447.59018626 Ry
     estimated scf accuracy    <          8.0E-13 Ry

     The total energy is the sum of the following terms:

     one-electron contribution =    -125.49085884 Ry
     hartree contribution      =     101.47913340 Ry
     xc contribution           =    -122.07626580 Ry
     ewald contribution        =    -301.50219502 Ry

     convergence has been achieved in   7 iterations

     Forces acting on atoms (cartesian axes, Ry/au):

     atom    1 type  1   force =    -0.00002133   -0.00002133    0.00000000
     atom    2 type  1   force =    -0.00005972   -0.00005972    0.00000000
     atom    3 type  2   force =     0.00005238    0.00009782    0.00000000
     atom    4 type  2   force =     0.00009782    0.00005238    0.00000000
     atom    5 type  2   force =    -0.00005739   -0.00005739    0.00000000
     atom    6 type  2   force =    -0.00001176   -0.00001176    0.00000000

     Total force =     0.000199     Total SCF correction =     0.000006


     Computing stress (Cartesian axis) and pressure

          total   stress  (Ry/bohr**3)                   (kbar)     P=   -0.01
  -0.00000015  -0.00000000   0.00000000         -0.02     -0.00      0.00
  -0.00000000  -0.00000015   0.00000000         -0.00     -0.02      0.00
   0.00000000   0.00000000   0.00000015          0.00      0.00      0.02


     number of scf cycles    =   6
     number of bfgs steps    =   5

     enthalpy old            =    -447.5901861304 Ry
     enthalpy new            =    -447.5901862615 Ry

     CASE: enthalpy_new < enthalpy_old

     new trust radius        =       0.0004285813 bohr
     new conv_thr            =            1.0E-12 Ry

     new unit-cell volume =    511.80878 a.u.^3 (    75.84224 Ang^3 )
     density =      6.59940 g/cm^3

CELL_PARAMETERS (alat=  9.11000000)
   1.002535622   0.000000000   0.000000000
   0.000000000   1.002535622   0.000000000
   0.000000000   0.000000000   0.673523850

ATOMIC_POSITIONS (crystal)
Sn      -0.000293637  -0.000293637   0.000000000
Sn       0.499717445   0.499717445   0.500000000
O        0.806304785   0.192903482   0.500000000
O        0.192903482   0.806304785   0.500000000
O        0.306384720   0.306384720   0.000000000
O        0.692983205   0.692983205   0.000000000



     Writing output data file SnO2.save
     NEW-OLD atomic charge density approx. for the potential
     extrapolated charge   51.99867, renormalised to   52.00000

     total cpu time spent up to now is     4517.5 secs

     Self-consistent Calculation

     iteration #  1     ecut=    80.00 Ry     beta= 0.70
     Davidson diagonalization with overlap
     ethr =  1.00E-06,  avg # of iterations =  2.0

     Threshold (ethr) on eigenvalues was too large:
     Diagonalizing with lowered threshold

     Davidson diagonalization with overlap
     ethr =  2.94E-10,  avg # of iterations =  3.6

     total cpu time spent up to now is     4660.0 secs

     total energy              =    -447.59018625 Ry
     Harris-Foulkes estimate   =    -447.59312404 Ry
     estimated scf accuracy    <       0.00000011 Ry

     iteration #  2     ecut=    80.00 Ry     beta= 0.70
     Davidson diagonalization with overlap
     ethr =  2.21E-10,  avg # of iterations =  3.3

     total cpu time spent up to now is     4739.4 secs

     total energy              =    -447.59018634 Ry
     Harris-Foulkes estimate   =    -447.59018641 Ry
     estimated scf accuracy    <       0.00000015 Ry

     iteration #  3     ecut=    80.00 Ry     beta= 0.70
     Davidson diagonalization with overlap
     ethr =  2.21E-10,  avg # of iterations =  2.0

     total cpu time spent up to now is     4800.9 secs

     total energy              =    -447.59018636 Ry
     Harris-Foulkes estimate   =    -447.59018636 Ry
     estimated scf accuracy    <       0.00000001 Ry

     iteration #  4     ecut=    80.00 Ry     beta= 0.70
     Davidson diagonalization with overlap
     ethr =  2.01E-11,  avg # of iterations =  2.0

     total cpu time spent up to now is     4864.0 secs

     total energy              =    -447.59018636 Ry
     Harris-Foulkes estimate   =    -447.59018636 Ry
     estimated scf accuracy    <          3.1E-09 Ry

     iteration #  5     ecut=    80.00 Ry     beta= 0.70
     Davidson diagonalization with overlap
     ethr =  5.96E-12,  avg # of iterations =  3.0

     total cpu time spent up to now is     4928.2 secs

     total energy              =    -447.59018636 Ry
     Harris-Foulkes estimate   =    -447.59018636 Ry
     estimated scf accuracy    <          6.3E-10 Ry

     iteration #  6     ecut=    80.00 Ry     beta= 0.70
     Davidson diagonalization with overlap
     ethr =  1.20E-12,  avg # of iterations =  3.1

     total cpu time spent up to now is     4991.9 secs

     total energy              =    -447.59018636 Ry
     Harris-Foulkes estimate   =    -447.59018636 Ry
     estimated scf accuracy    <          2.1E-11 Ry

     iteration #  7     ecut=    80.00 Ry     beta= 0.70
     Davidson diagonalization with overlap
     ethr =  1.00E-13,  avg # of iterations =  2.1

     total cpu time spent up to now is     5049.7 secs

     total energy              =    -447.59018636 Ry
     Harris-Foulkes estimate   =    -447.59018636 Ry
     estimated scf accuracy    <          1.5E-12 Ry

     iteration #  8     ecut=    80.00 Ry     beta= 0.70
     Davidson diagonalization with overlap
     ethr =  1.00E-13,  avg # of iterations =  1.0

     total cpu time spent up to now is     5099.0 secs

     End of self-consistent calculation

     Number of k-points >= 100: set verbosity='high' to print the bands.

     highest occupied level (ev):     8.9169

!    total energy              =    -447.59018636 Ry
     Harris-Foulkes estimate   =    -447.59018636 Ry
     estimated scf accuracy    <          1.7E-13 Ry

     The total energy is the sum of the following terms:

     one-electron contribution =    -125.48209678 Ry
     hartree contribution      =     101.47561860 Ry
     xc contribution           =    -122.07631230 Ry
     ewald contribution        =    -301.50739588 Ry

     convergence has been achieved in   8 iterations

     Forces acting on atoms (cartesian axes, Ry/au):

     atom    1 type  1   force =    -0.00004353   -0.00004353    0.00000000
     atom    2 type  1   force =    -0.00007719   -0.00007719    0.00000000
     atom    3 type  2   force =     0.00002073    0.00006578    0.00000000
     atom    4 type  2   force =     0.00006578    0.00002073    0.00000000
     atom    5 type  2   force =    -0.00000602   -0.00000602    0.00000000
     atom    6 type  2   force =     0.00004024    0.00004024    0.00000000

     Total force =     0.000169     Total SCF correction =     0.000002


     Computing stress (Cartesian axis) and pressure

          total   stress  (Ry/bohr**3)                   (kbar)     P=    0.01
   0.00000031   0.00000000   0.00000000          0.05      0.00      0.00
   0.00000000   0.00000031   0.00000000          0.00      0.05      0.00
   0.00000000   0.00000000  -0.00000045          0.00      0.00     -0.07


     number of scf cycles    =   7
     number of bfgs steps    =   6

     enthalpy old            =    -447.5901862615 Ry
     enthalpy new            =    -447.5901863568 Ry

     CASE: enthalpy_new < enthalpy_old

     new trust radius        =       0.0002916822 bohr
     new conv_thr            =            1.0E-12 Ry

     new unit-cell volume =    511.80347 a.u.^3 (    75.84145 Ang^3 )
     density =      6.59947 g/cm^3

CELL_PARAMETERS (alat=  9.11000000)
   1.002524671   0.000000000   0.000000000
   0.000000000   1.002524671   0.000000000
   0.000000000   0.000000000   0.673531576

ATOMIC_POSITIONS (crystal)
Sn      -0.000303071  -0.000303071   0.000000000
Sn       0.499701165   0.499701165   0.500000000
O        0.806325082   0.192928139   0.500000000
O        0.192928139   0.806325082   0.500000000
O        0.306372869   0.306372869   0.000000000
O        0.692975815   0.692975815   0.000000000



     Writing output data file SnO2.save
     NEW-OLD atomic charge density approx. for the potential
     extrapolated charge   51.99946, renormalised to   52.00000

     total cpu time spent up to now is     5124.7 secs

     Self-consistent Calculation

     iteration #  1     ecut=    80.00 Ry     beta= 0.70
     Davidson diagonalization with overlap
     ethr =  1.00E-06,  avg # of iterations =  2.0

     Threshold (ethr) on eigenvalues was too large:
     Diagonalizing with lowered threshold

     Davidson diagonalization with overlap
     ethr =  2.08E-10,  avg # of iterations =  3.8

     total cpu time spent up to now is     5264.4 secs

     total energy              =    -447.59018638 Ry
     Harris-Foulkes estimate   =    -447.59137649 Ry
     estimated scf accuracy    <       0.00000003 Ry

     iteration #  2     ecut=    80.00 Ry     beta= 0.70
     Davidson diagonalization with overlap
     ethr =  6.12E-11,  avg # of iterations =  3.0

     total cpu time spent up to now is     5341.2 secs

     total energy              =    -447.59018640 Ry
     Harris-Foulkes estimate   =    -447.59018641 Ry
     estimated scf accuracy    <       0.00000002 Ry

     iteration #  3     ecut=    80.00 Ry     beta= 0.70
     Davidson diagonalization with overlap
     ethr =  4.71E-11,  avg # of iterations =  2.0

     total cpu time spent up to now is     5403.4 secs

     total energy              =    -447.59018640 Ry
     Harris-Foulkes estimate   =    -447.59018640 Ry
     estimated scf accuracy    <          1.2E-09 Ry

     iteration #  4     ecut=    80.00 Ry     beta= 0.70
     Davidson diagonalization with overlap
     ethr =  2.24E-12,  avg # of iterations =  2.7

     total cpu time spent up to now is     5472.6 secs

     total energy              =    -447.59018640 Ry
     Harris-Foulkes estimate   =    -447.59018640 Ry
     estimated scf accuracy    <          2.6E-10 Ry

     iteration #  5     ecut=    80.00 Ry     beta= 0.70
     Davidson diagonalization with overlap
     ethr =  4.92E-13,  avg # of iterations =  2.7

     total cpu time spent up to now is     5536.6 secs

     total energy              =    -447.59018640 Ry
     Harris-Foulkes estimate   =    -447.59018640 Ry
     estimated scf accuracy    <          2.6E-11 Ry

     iteration #  6     ecut=    80.00 Ry     beta= 0.70
     Davidson diagonalization with overlap
     ethr =  1.00E-13,  avg # of iterations =  2.8

     total cpu time spent up to now is     5597.5 secs

     total energy              =    -447.59018640 Ry
     Harris-Foulkes estimate   =    -447.59018640 Ry
     estimated scf accuracy    <          5.7E-12 Ry

     iteration #  7     ecut=    80.00 Ry     beta= 0.70
     Davidson diagonalization with overlap
     ethr =  1.00E-13,  avg # of iterations =  1.0

     total cpu time spent up to now is     5647.0 secs

     End of self-consistent calculation

     Number of k-points >= 100: set verbosity='high' to print the bands.

     highest occupied level (ev):     8.9171

!    total energy              =    -447.59018640 Ry
     Harris-Foulkes estimate   =    -447.59018640 Ry
     estimated scf accuracy    <          3.1E-13 Ry

     The total energy is the sum of the following terms:

     one-electron contribution =    -125.47871440 Ry
     hartree contribution      =     101.47425090 Ry
     xc contribution           =    -122.07633162 Ry
     ewald contribution        =    -301.50939128 Ry

     convergence has been achieved in   7 iterations

     Forces acting on atoms (cartesian axes, Ry/au):

     atom    1 type  1   force =    -0.00004726   -0.00004726    0.00000000
     atom    2 type  1   force =    -0.00005725   -0.00005725    0.00000000
     atom    3 type  2   force =     0.00001117    0.00003914    0.00000000
     atom    4 type  2   force =     0.00003914    0.00001117    0.00000000
     atom    5 type  2   force =     0.00001287    0.00001287    0.00000000
     atom    6 type  2   force =     0.00004133    0.00004133    0.00000000

     Total force =     0.000134     Total SCF correction =     0.000004


     Computing stress (Cartesian axis) and pressure

          total   stress  (Ry/bohr**3)                   (kbar)     P=    0.01
   0.00000045   0.00000000   0.00000000          0.07      0.00      0.00
   0.00000000   0.00000045   0.00000000          0.00      0.07      0.00
   0.00000000   0.00000000  -0.00000061          0.00      0.00     -0.09


     number of scf cycles    =   8
     number of bfgs steps    =   7

     enthalpy old            =    -447.5901863568 Ry
     enthalpy new            =    -447.5901864005 Ry

     CASE: enthalpy_new < enthalpy_old

     new trust radius        =       0.0003208469 bohr
     new conv_thr            =            1.0E-12 Ry

     new unit-cell volume =    511.80251 a.u.^3 (    75.84131 Ang^3 )
     density =      6.59948 g/cm^3

CELL_PARAMETERS (alat=  9.11000000)
   1.002528059   0.000000000   0.000000000
   0.000000000   1.002528059   0.000000000
   0.000000000   0.000000000   0.673525758

ATOMIC_POSITIONS (crystal)
Sn      -0.000318136  -0.000318136   0.000000000
Sn       0.499680257   0.499680257   0.500000000
O        0.806345978   0.192956380   0.500000000
O        0.192956380   0.806345978   0.500000000
O        0.306362569   0.306362569   0.000000000
O        0.692972952   0.692972952   0.000000000



     Writing output data file SnO2.save
     NEW-OLD atomic charge density approx. for the potential
     extrapolated charge   51.99990, renormalised to   52.00000

     total cpu time spent up to now is     5672.6 secs

     Self-consistent Calculation

     iteration #  1     ecut=    80.00 Ry     beta= 0.70
     Davidson diagonalization with overlap
     ethr =  1.00E-06,  avg # of iterations =  2.0

     Threshold (ethr) on eigenvalues was too large:
     Diagonalizing with lowered threshold

     Davidson diagonalization with overlap
     ethr =  5.31E-11,  avg # of iterations =  4.5

     total cpu time spent up to now is     5821.7 secs

     total energy              =    -447.59018644 Ry
     Harris-Foulkes estimate   =    -447.59040199 Ry
     estimated scf accuracy    <       0.00000003 Ry

     iteration #  2     ecut=    80.00 Ry     beta= 0.70
     Davidson diagonalization with overlap
     ethr =  5.21E-11,  avg # of iterations =  2.0

     total cpu time spent up to now is     5881.7 secs

     total energy              =    -447.59018644 Ry
     Harris-Foulkes estimate   =    -447.59018644 Ry
     estimated scf accuracy    <          2.2E-09 Ry

     iteration #  3     ecut=    80.00 Ry     beta= 0.70
     Davidson diagonalization with overlap
     ethr =  4.32E-12,  avg # of iterations =  2.2

     total cpu time spent up to now is     5949.9 secs

     total energy              =    -447.59018644 Ry
     Harris-Foulkes estimate   =    -447.59018644 Ry
     estimated scf accuracy    <          4.3E-10 Ry

     iteration #  4     ecut=    80.00 Ry     beta= 0.70
     Davidson diagonalization with overlap
     ethr =  8.20E-13,  avg # of iterations =  2.2

     total cpu time spent up to now is     6016.7 secs

     total energy              =    -447.59018644 Ry
     Harris-Foulkes estimate   =    -447.59018644 Ry
     estimated scf accuracy    <          2.8E-11 Ry

     iteration #  5     ecut=    80.00 Ry     beta= 0.70
     Davidson diagonalization with overlap
     ethr =  1.00E-13,  avg # of iterations =  2.1

     total cpu time spent up to now is     6078.5 secs

     total energy              =    -447.59018644 Ry
     Harris-Foulkes estimate   =    -447.59018644 Ry
     estimated scf accuracy    <          2.4E-12 Ry

     iteration #  6     ecut=    80.00 Ry     beta= 0.70
     Davidson diagonalization with overlap
     ethr =  1.00E-13,  avg # of iterations =  1.0

     total cpu time spent up to now is     6127.6 secs

     End of self-consistent calculation

     Number of k-points >= 100: set verbosity='high' to print the bands.

     highest occupied level (ev):     8.9171

!    total energy              =    -447.59018644 Ry
     Harris-Foulkes estimate   =    -447.59018644 Ry
     estimated scf accuracy    <          1.2E-13 Ry

     The total energy is the sum of the following terms:

     one-electron contribution =    -125.47831979 Ry
     hartree contribution      =     101.47407736 Ry
     xc contribution           =    -122.07633614 Ry
     ewald contribution        =    -301.50960787 Ry

     convergence has been achieved in   6 iterations

     Forces acting on atoms (cartesian axes, Ry/au):

     atom    1 type  1   force =    -0.00003140   -0.00003140    0.00000000
     atom    2 type  1   force =    -0.00001971   -0.00001971    0.00000000
     atom    3 type  2   force =     0.00000655    0.00000859    0.00000000
     atom    4 type  2   force =     0.00000859    0.00000655    0.00000000
     atom    5 type  2   force =     0.00001696    0.00001696    0.00000000
     atom    6 type  2   force =     0.00001901    0.00001901    0.00000000

     Total force =     0.000065     Total SCF correction =     0.000001


     Computing stress (Cartesian axis) and pressure

          total   stress  (Ry/bohr**3)                   (kbar)     P=    0.02
   0.00000041   0.00000000   0.00000000          0.06      0.00      0.00
   0.00000000   0.00000041   0.00000000          0.00      0.06      0.00
   0.00000000   0.00000000  -0.00000052          0.00      0.00     -0.08


     number of scf cycles    =   9
     number of bfgs steps    =   8

     enthalpy old            =    -447.5901864005 Ry
     enthalpy new            =    -447.5901864412 Ry

     CASE: enthalpy_new < enthalpy_old

     new trust radius        =       0.0001608829 bohr
     new conv_thr            =            1.0E-12 Ry

     new unit-cell volume =    511.80719 a.u.^3 (    75.84200 Ang^3 )
     density =      6.59942 g/cm^3

CELL_PARAMETERS (alat=  9.11000000)
   1.002544080   0.000000000   0.000000000
   0.000000000   1.002544080   0.000000000
   0.000000000   0.000000000   0.673510381

ATOMIC_POSITIONS (crystal)
Sn      -0.000329216  -0.000329216   0.000000000
Sn       0.499668484   0.499668484   0.500000000
O        0.806356046   0.192970834   0.500000000
O        0.192970834   0.806356046   0.500000000
O        0.306359517   0.306359517   0.000000000
O        0.692974335   0.692974335   0.000000000



     Writing output data file SnO2.save
     NEW-OLD atomic charge density approx. for the potential
     extrapolated charge   52.00047, renormalised to   52.00000

     total cpu time spent up to now is     6153.3 secs

     Self-consistent Calculation

     iteration #  1     ecut=    80.00 Ry     beta= 0.70
     Davidson diagonalization with overlap
     ethr =  1.00E-06,  avg # of iterations =  1.1

     Threshold (ethr) on eigenvalues was too large:
     Diagonalizing with lowered threshold

     Davidson diagonalization with overlap
     ethr =  4.63E-10,  avg # of iterations =  3.0

     total cpu time spent up to now is     6284.2 secs

     total energy              =    -447.59018644 Ry
     Harris-Foulkes estimate   =    -447.58913916 Ry
     estimated scf accuracy    <       0.00000001 Ry

     iteration #  2     ecut=    80.00 Ry     beta= 0.70
     Davidson diagonalization with overlap
     ethr =  2.71E-11,  avg # of iterations =  3.1

     total cpu time spent up to now is     6363.6 secs

     total energy              =    -447.59018646 Ry
     Harris-Foulkes estimate   =    -447.59018646 Ry
     estimated scf accuracy    <       0.00000002 Ry

     iteration #  3     ecut=    80.00 Ry     beta= 0.70
     Davidson diagonalization with overlap
     ethr =  2.71E-11,  avg # of iterations =  2.0

     total cpu time spent up to now is     6425.4 secs

     total energy              =    -447.59018646 Ry
     Harris-Foulkes estimate   =    -447.59018646 Ry
     estimated scf accuracy    <          1.3E-09 Ry

     iteration #  4     ecut=    80.00 Ry     beta= 0.70
     Davidson diagonalization with overlap
     ethr =  2.44E-12,  avg # of iterations =  2.0

     total cpu time spent up to now is     6484.2 secs

     total energy              =    -447.59018646 Ry
     Harris-Foulkes estimate   =    -447.59018646 Ry
     estimated scf accuracy    <          2.9E-10 Ry

     iteration #  5     ecut=    80.00 Ry     beta= 0.70
     Davidson diagonalization with overlap
     ethr =  5.63E-13,  avg # of iterations =  2.0

     total cpu time spent up to now is     6545.7 secs

     total energy              =    -447.59018646 Ry
     Harris-Foulkes estimate   =    -447.59018646 Ry
     estimated scf accuracy    <          2.5E-12 Ry

     iteration #  6     ecut=    80.00 Ry     beta= 0.70
     Davidson diagonalization with overlap
     ethr =  1.00E-13,  avg # of iterations =  1.1

     total cpu time spent up to now is     6594.9 secs

     End of self-consistent calculation

     Number of k-points >= 100: set verbosity='high' to print the bands.

     highest occupied level (ev):     8.9170

!    total energy              =    -447.59018646 Ry
     Harris-Foulkes estimate   =    -447.59018646 Ry
     estimated scf accuracy    <          9.6E-13 Ry

     The total energy is the sum of the following terms:

     one-electron contribution =    -125.48149903 Ry
     hartree contribution      =     101.47533372 Ry
     xc contribution           =    -122.07631713 Ry
     ewald contribution        =    -301.50770402 Ry

     convergence has been achieved in   6 iterations

     Forces acting on atoms (cartesian axes, Ry/au):

     atom    1 type  1   force =    -0.00000774   -0.00000774    0.00000000
     atom    2 type  1   force =     0.00000696    0.00000696    0.00000000
     atom    3 type  2   force =     0.00000553   -0.00000616    0.00000000
     atom    4 type  2   force =    -0.00000616    0.00000553    0.00000000
     atom    5 type  2   force =     0.00000654    0.00000654    0.00000000
     atom    6 type  2   force =    -0.00000513   -0.00000513    0.00000000

     Total force =     0.000022     Total SCF correction =     0.000003
     SCF correction compared to forces is large: reduce conv_thr to get better values


     Computing stress (Cartesian axis) and pressure

          total   stress  (Ry/bohr**3)                   (kbar)     P=    0.01
   0.00000020  -0.00000000  -0.00000000          0.03     -0.00     -0.00
  -0.00000000   0.00000020   0.00000000         -0.00      0.03      0.00
   0.00000000  -0.00000000  -0.00000026          0.00     -0.00     -0.04


     number of scf cycles    =  10
     number of bfgs steps    =   9

     enthalpy old            =    -447.5901864412 Ry
     enthalpy new            =    -447.5901864571 Ry

     CASE: enthalpy_new < enthalpy_old

     small trust_radius: resetting bfgs history

     new trust radius        =       0.0000296857 bohr
     new conv_thr            =            1.0E-12 Ry

     new unit-cell volume =    511.80892 a.u.^3 (    75.84226 Ang^3 )
     density =      6.59939 g/cm^3

CELL_PARAMETERS (alat=  9.11000000)
   1.002549066   0.000000000   0.000000000
   0.000000000   1.002549066   0.000000000
   0.000000000   0.000000000   0.673505962

ATOMIC_POSITIONS (crystal)
Sn      -0.000330063  -0.000330063   0.000000000
Sn       0.499669246   0.499669246   0.500000000
O        0.806356651   0.192970160   0.500000000
O        0.192970160   0.806356651   0.500000000
O        0.306360232   0.306360232   0.000000000
O        0.692973774   0.692973774   0.000000000



     Writing output data file SnO2.save
     NEW-OLD atomic charge density approx. for the potential
     extrapolated charge   52.00018, renormalised to   52.00000

     total cpu time spent up to now is     6620.4 secs

     Self-consistent Calculation

     iteration #  1     ecut=    80.00 Ry     beta= 0.70
     Davidson diagonalization with overlap
     ethr =  1.00E-06,  avg # of iterations =  1.0

     Threshold (ethr) on eigenvalues was too large:
     Diagonalizing with lowered threshold

     Davidson diagonalization with overlap
     ethr =  6.14E-12,  avg # of iterations =  3.5

     total cpu time spent up to now is     6753.1 secs

     total energy              =    -447.59018646 Ry
     Harris-Foulkes estimate   =    -447.58979811 Ry
     estimated scf accuracy    <          8.7E-10 Ry

     iteration #  2     ecut=    80.00 Ry     beta= 0.70
     Davidson diagonalization with overlap
     ethr =  1.67E-12,  avg # of iterations =  4.0

     total cpu time spent up to now is     6840.6 secs

     total energy              =    -447.59018646 Ry
     Harris-Foulkes estimate   =    -447.59018646 Ry
     estimated scf accuracy    <          2.4E-09 Ry

     iteration #  3     ecut=    80.00 Ry     beta= 0.70
     Davidson diagonalization with overlap
     ethr =  1.67E-12,  avg # of iterations =  2.0

     total cpu time spent up to now is     6902.6 secs

     total energy              =    -447.59018646 Ry
     Harris-Foulkes estimate   =    -447.59018646 Ry
     estimated scf accuracy    <          3.4E-10 Ry

     iteration #  4     ecut=    80.00 Ry     beta= 0.70
     Davidson diagonalization with overlap
     ethr =  6.48E-13,  avg # of iterations =  1.0

     total cpu time spent up to now is     6951.9 secs

     total energy              =    -447.59018646 Ry
     Harris-Foulkes estimate   =    -447.59018646 Ry
     estimated scf accuracy    <          1.6E-10 Ry

     iteration #  5     ecut=    80.00 Ry     beta= 0.70
     Davidson diagonalization with overlap
     ethr =  3.06E-13,  avg # of iterations =  2.0

     total cpu time spent up to now is     7020.5 secs

     End of self-consistent calculation

     Number of k-points >= 100: set verbosity='high' to print the bands.

     highest occupied level (ev):     8.9169

!    total energy              =    -447.59018646 Ry
     Harris-Foulkes estimate   =    -447.59018646 Ry
     estimated scf accuracy    <          3.8E-13 Ry

     The total energy is the sum of the following terms:

     one-electron contribution =    -125.48284041 Ry
     hartree contribution      =     101.47589590 Ry
     xc contribution           =    -122.07631514 Ry
     ewald contribution        =    -301.50692681 Ry

     convergence has been achieved in   5 iterations

     Forces acting on atoms (cartesian axes, Ry/au):

     atom    1 type  1   force =    -0.00000245   -0.00000245    0.00000000
     atom    2 type  1   force =     0.00000121    0.00000121    0.00000000
     atom    3 type  2   force =     0.00000266   -0.00000331    0.00000000
     atom    4 type  2   force =    -0.00000331    0.00000266    0.00000000
     atom    5 type  2   force =     0.00000401    0.00000401    0.00000000
     atom    6 type  2   force =    -0.00000211   -0.00000211    0.00000000

     Total force =     0.000010     Total SCF correction =     0.000004
     SCF correction compared to forces is large: reduce conv_thr to get better values


     Computing stress (Cartesian axis) and pressure

          total   stress  (Ry/bohr**3)                   (kbar)     P=    0.01
   0.00000015  -0.00000000  -0.00000000          0.02     -0.00     -0.00
  -0.00000000   0.00000015   0.00000000         -0.00      0.02      0.00
  -0.00000000   0.00000000  -0.00000015         -0.00      0.00     -0.02


     number of scf cycles    =  11
     number of bfgs steps    =  10

     enthalpy old            =    -447.5901864571 Ry
     enthalpy new            =    -447.5901864591 Ry

     CASE: enthalpy_new < enthalpy_old

     Message from routine bfgs:
     history already reset at previous step: stopping
     small trust_radius: resetting bfgs history

     new trust radius        =       0.0000174960 bohr
     new conv_thr            =            2.0E-13 Ry

     new unit-cell volume =    511.81087 a.u.^3 (    75.84255 Ang^3 )
     density =      6.59937 g/cm^3

CELL_PARAMETERS (alat=  9.11000000)
   1.002552918   0.000000000   0.000000000
   0.000000000   1.002552918   0.000000000
   0.000000000   0.000000000   0.673503358

ATOMIC_POSITIONS (crystal)
Sn      -0.000330331  -0.000330331   0.000000000
Sn       0.499669378   0.499669378   0.500000000
O        0.806356942   0.192969797   0.500000000
O        0.192969797   0.806356942   0.500000000
O        0.306360671   0.306360671   0.000000000
O        0.692973542   0.692973542   0.000000000



     Writing output data file SnO2.save
     NEW-OLD atomic charge density approx. for the potential
     extrapolated charge   52.00020, renormalised to   52.00000

     total cpu time spent up to now is     7046.0 secs

     Self-consistent Calculation

     iteration #  1     ecut=    80.00 Ry     beta= 0.70
     Davidson diagonalization with overlap
     ethr =  1.00E-06,  avg # of iterations =  1.0

     Threshold (ethr) on eigenvalues was too large:
     Diagonalizing with lowered threshold

     Davidson diagonalization with overlap
     ethr =  2.34E-12,  avg # of iterations =  3.3

     total cpu time spent up to now is     7175.4 secs

     total energy              =    -447.59018646 Ry
     Harris-Foulkes estimate   =    -447.58974837 Ry
     estimated scf accuracy    <          1.2E-09 Ry

     iteration #  2     ecut=    80.00 Ry     beta= 0.70
     Davidson diagonalization with overlap
     ethr =  2.22E-12,  avg # of iterations =  4.0

     total cpu time spent up to now is     7262.6 secs

     total energy              =    -447.59018646 Ry
     Harris-Foulkes estimate   =    -447.59018646 Ry
     estimated scf accuracy    <          3.2E-09 Ry

     iteration #  3     ecut=    80.00 Ry     beta= 0.70
     Davidson diagonalization with overlap
     ethr =  2.22E-12,  avg # of iterations =  2.0

     total cpu time spent up to now is     7324.6 secs

     total energy              =    -447.59018646 Ry
     Harris-Foulkes estimate   =    -447.59018646 Ry
     estimated scf accuracy    <          4.3E-10 Ry

     iteration #  4     ecut=    80.00 Ry     beta= 0.70
     Davidson diagonalization with overlap
     ethr =  8.32E-13,  avg # of iterations =  1.0

     total cpu time spent up to now is     7373.8 secs

     total energy              =    -447.59018646 Ry
     Harris-Foulkes estimate   =    -447.59018646 Ry
     estimated scf accuracy    <          2.3E-10 Ry

     iteration #  5     ecut=    80.00 Ry     beta= 0.70
     Davidson diagonalization with overlap
     ethr =  4.33E-13,  avg # of iterations =  2.0

     total cpu time spent up to now is     7434.1 secs

     total energy              =    -447.59018646 Ry
     Harris-Foulkes estimate   =    -447.59018646 Ry
     estimated scf accuracy    <          2.9E-12 Ry

     iteration #  6     ecut=    80.00 Ry     beta= 0.70
     Davidson diagonalization with overlap
     ethr =  1.00E-13,  avg # of iterations =  1.4

     total cpu time spent up to now is     7483.9 secs

     End of self-consistent calculation

     Number of k-points >= 100: set verbosity='high' to print the bands.

     highest occupied level (ev):     8.9169

!    total energy              =    -447.59018646 Ry
     Harris-Foulkes estimate   =    -447.59018646 Ry
     estimated scf accuracy    <          1.4E-13 Ry

     The total energy is the sum of the following terms:

     one-electron contribution =    -125.48395068 Ry
     hartree contribution      =     101.47633305 Ry
     xc contribution           =    -122.07630723 Ry
     ewald contribution        =    -301.50626160 Ry

     convergence has been achieved in   6 iterations

     Forces acting on atoms (cartesian axes, Ry/au):

     atom    1 type  1   force =    -0.00000133   -0.00000133    0.00000000
     atom    2 type  1   force =     0.00000066    0.00000066    0.00000000
     atom    3 type  2   force =     0.00000152   -0.00000205    0.00000000
     atom    4 type  2   force =    -0.00000205    0.00000152    0.00000000
     atom    5 type  2   force =     0.00000245    0.00000245    0.00000000
     atom    6 type  2   force =    -0.00000125   -0.00000125    0.00000000

     Total force =     0.000006     Total SCF correction =     0.000001
     SCF correction compared to forces is large: reduce conv_thr to get better values


     Computing stress (Cartesian axis) and pressure

          total   stress  (Ry/bohr**3)                   (kbar)     P=    0.01
   0.00000011   0.00000000   0.00000000          0.02      0.00      0.00
   0.00000000   0.00000011   0.00000000          0.00      0.02      0.00
   0.00000000   0.00000000  -0.00000011          0.00      0.00     -0.02


     bfgs converged in  12 scf cycles and  11 bfgs steps
     (criteria: energy <  1.0E-10 Ry, force <  1.0E-09Ry/Bohr, cell <  5.0E-01kbar)

     End of BFGS Geometry Optimization

     Final enthalpy =    -447.5901864599 Ry
Begin final coordinates
     new unit-cell volume =    511.81087 a.u.^3 (    75.84255 Ang^3 )
     density =      6.59937 g/cm^3

CELL_PARAMETERS (alat=  9.11000000)
   1.002552918   0.000000000   0.000000000
   0.000000000   1.002552918   0.000000000
   0.000000000   0.000000000   0.673503358

ATOMIC_POSITIONS (crystal)
Sn      -0.000330331  -0.000330331   0.000000000
Sn       0.499669378   0.499669378   0.500000000
O        0.806356942   0.192969797   0.500000000
O        0.192969797   0.806356942   0.500000000
O        0.306360671   0.306360671   0.000000000
O        0.692973542   0.692973542   0.000000000
End final coordinates



     A final scf calculation at the relaxed structure.
     The G-vectors are recalculated for the final unit cell
     Results may differ from those at the preceding step.
 
     Parallelization info
     --------------------
     sticks:   dense  smooth     PW     G-vecs:    dense   smooth      PW
     Min        1060    1060    306                24737    24737    3887
     Max        1061    1061    307                24738    24738    3888
     Sum        2121    2121    613                49475    49475    7775
 


     bravais-lattice index     =            6
     lattice parameter (alat)  =       9.1100  a.u.
     unit-cell volume          =     511.8109 (a.u.)^3
     number of atoms/cell      =            6
     number of atomic types    =            2
     number of electrons       =        52.00
     number of Kohn-Sham states=           26
     kinetic-energy cutoff     =      80.0000  Ry
     charge density cutoff     =     320.0000  Ry
     convergence threshold     =      2.0E-13
     mixing beta               =       0.7000
     number of iterations used =            8  plain     mixing
     Exchange-correlation      = PBE ( 1  4  3  4 0 0)

     celldm(1)=   9.110000  celldm(2)=   0.000000  celldm(3)=   0.670000
     celldm(4)=   0.000000  celldm(5)=   0.000000  celldm(6)=   0.000000

     crystal axes: (cart. coord. in units of alat)
               a(1) = (   1.002553   0.000000   0.000000 )  
               a(2) = (   0.000000   1.002553   0.000000 )  
               a(3) = (   0.000000   0.000000   0.673503 )  

     reciprocal axes: (cart. coord. in units 2 pi/alat)
               b(1) = (  0.997454  0.000000  0.000000 )  
               b(2) = (  0.000000  0.997454  0.000000 )  
               b(3) = (  0.000000  0.000000  1.484774 )  


     PseudoPot. # 1 for Sn read from file:
     ../../Pseudo_potentials/Sn_PBE.upf
     MD5 check sum: 78e6386ae56e929f0568ae8bf606a80c
     Pseudo is Norm-conserving + core correction, Zval = 14.0
     Generated using ONCVPSP code by D. R. Hamann
     Using radial grid of 1628 points,  6 beta functions with: 
                l(1) =   0
                l(2) =   0
                l(3) =   1
                l(4) =   1
                l(5) =   2
                l(6) =   2

     PseudoPot. # 2 for O  read from file:
     ../../Pseudo_potentials/O_PBE.upf
     MD5 check sum: 3e3f909f7470e8921608ab6b1f57bbae
     Pseudo is Norm-conserving + core correction, Zval =  6.0
     Generated using ONCVPSP code by D. R. Hamann
     Using radial grid of  936 points,  5 beta functions with: 
                l(1) =   0
                l(2) =   0
                l(3) =   1
                l(4) =   1
                l(5) =   2

     atomic species   valence    mass     pseudopotential
        Sn            14.00   118.71000     Sn( 1.00)
        O              6.00    15.99900     O ( 1.00)

      4 Sym. Ops. (no inversion) found



   Cartesian axes

     site n.     atom                  positions (alat units)
         1           Sn  tau(   1) = (  -0.0003312  -0.0003312   0.0000000  )
         2           Sn  tau(   2) = (   0.5009450   0.5009450   0.3367517  )
         3           O   tau(   3) = (   0.8084155   0.1934624   0.3367517  )
         4           O   tau(   4) = (   0.1934624   0.8084155   0.3367517  )
         5           O   tau(   5) = (   0.3071428   0.3071428   0.0000000  )
         6           O   tau(   6) = (   0.6947426   0.6947426   0.0000000  )

     number of k points=   301

     Number of k-points >= 100: set verbosity='high' to print them.

     Dense  grid:    49475 G-vectors     FFT dimensions: (  54,  54,  36)

     Estimated max dynamical RAM per process >     408.30 MB

     Estimated total dynamical RAM >     816.59 MB

     Initial potential from superposition of free atoms

     starting charge   51.99690, renormalised to   52.00000
     Starting wfc are   34 randomized atomic wfcs

     Writing output data file SnO2.save

     total cpu time spent up to now is     7532.4 secs

     Self-consistent Calculation

     iteration #  1     ecut=    80.00 Ry     beta= 0.70
     Davidson diagonalization with overlap
     ethr =  1.00E-06,  avg # of iterations =  5.6

     total cpu time spent up to now is     7654.9 secs

     total energy              =    -446.90536877 Ry
     Harris-Foulkes estimate   =    -448.04532530 Ry
     estimated scf accuracy    <       1.54955116 Ry

     iteration #  2     ecut=    80.00 Ry     beta= 0.70
     Davidson diagonalization with overlap
     ethr =  2.98E-03,  avg # of iterations =  3.1

     total cpu time spent up to now is     7723.2 secs

     total energy              =    -447.27541764 Ry
     Harris-Foulkes estimate   =    -448.03566665 Ry
     estimated scf accuracy    <       1.55917808 Ry

     iteration #  3     ecut=    80.00 Ry     beta= 0.70
     Davidson diagonalization with overlap
     ethr =  2.98E-03,  avg # of iterations =  3.0

     total cpu time spent up to now is     7788.4 secs

     total energy              =    -447.58655315 Ry
     Harris-Foulkes estimate   =    -447.58748386 Ry
     estimated scf accuracy    <       0.00621934 Ry

     iteration #  4     ecut=    80.00 Ry     beta= 0.70
     Davidson diagonalization with overlap
     ethr =  1.20E-05,  avg # of iterations =  2.9

     total cpu time spent up to now is     7860.7 secs

     total energy              =    -447.58977257 Ry
     Harris-Foulkes estimate   =    -447.58996625 Ry
     estimated scf accuracy    <       0.00041461 Ry

     iteration #  5     ecut=    80.00 Ry     beta= 0.70
     Davidson diagonalization with overlap
     ethr =  7.97E-07,  avg # of iterations =  3.0

     total cpu time spent up to now is     7920.0 secs

     total energy              =    -447.58980224 Ry
     Harris-Foulkes estimate   =    -447.58981387 Ry
     estimated scf accuracy    <       0.00003428 Ry

     iteration #  6     ecut=    80.00 Ry     beta= 0.70
     Davidson diagonalization with overlap
     ethr =  6.59E-08,  avg # of iterations =  2.7

     total cpu time spent up to now is     7991.0 secs

     total energy              =    -447.59018616 Ry
     Harris-Foulkes estimate   =    -447.59018603 Ry
     estimated scf accuracy    <       0.00000191 Ry

     iteration #  7     ecut=    80.00 Ry     beta= 0.70
     Davidson diagonalization with overlap
     ethr =  3.67E-09,  avg # of iterations =  3.0

     total cpu time spent up to now is     8055.8 secs

     total energy              =    -447.59018633 Ry
     Harris-Foulkes estimate   =    -447.59018647 Ry
     estimated scf accuracy    <       0.00000034 Ry

     iteration #  8     ecut=    80.00 Ry     beta= 0.70
     Davidson diagonalization with overlap
     ethr =  6.56E-10,  avg # of iterations =  2.1

     total cpu time spent up to now is     8108.4 secs

     total energy              =    -447.59018635 Ry
     Harris-Foulkes estimate   =    -447.59018635 Ry
     estimated scf accuracy    <          3.2E-09 Ry

     iteration #  9     ecut=    80.00 Ry     beta= 0.70
     Davidson diagonalization with overlap
     ethr =  6.16E-12,  avg # of iterations =  4.0

     total cpu time spent up to now is     8191.0 secs

     total energy              =    -447.59018635 Ry
     Harris-Foulkes estimate   =    -447.59018635 Ry
     estimated scf accuracy    <          7.2E-10 Ry

     iteration # 10     ecut=    80.00 Ry     beta= 0.70
     Davidson diagonalization with overlap
     ethr =  1.39E-12,  avg # of iterations =  2.7

     total cpu time spent up to now is     8252.1 secs

     total energy              =    -447.59023781 Ry
     Harris-Foulkes estimate   =    -447.59023781 Ry
     estimated scf accuracy    <       0.00000009 Ry

     iteration # 11     ecut=    80.00 Ry     beta= 0.70
     Davidson diagonalization with overlap
     ethr =  1.39E-12,  avg # of iterations =  2.7

     total cpu time spent up to now is     8312.9 secs

     total energy              =    -447.59023779 Ry
     Harris-Foulkes estimate   =    -447.59023781 Ry
     estimated scf accuracy    <       0.00000008 Ry

     iteration # 12     ecut=    80.00 Ry     beta= 0.70
     Davidson diagonalization with overlap
     ethr =  1.39E-12,  avg # of iterations =  4.0

     total cpu time spent up to now is     8396.2 secs

     total energy              =    -447.59023778 Ry
     Harris-Foulkes estimate   =    -447.59023779 Ry
     estimated scf accuracy    <       0.00000004 Ry

     iteration # 13     ecut=    80.00 Ry     beta= 0.70
     Davidson diagonalization with overlap
     ethr =  1.39E-12,  avg # of iterations =  4.0

     total cpu time spent up to now is     8474.6 secs

     total energy              =    -447.59023778 Ry
     Harris-Foulkes estimate   =    -447.59023778 Ry
     estimated scf accuracy    <       0.00000002 Ry

     iteration # 14     ecut=    80.00 Ry     beta= 0.70
     Davidson diagonalization with overlap
     ethr =  1.39E-12,  avg # of iterations =  4.0

     total cpu time spent up to now is     8555.2 secs

     total energy              =    -447.59023778 Ry
     Harris-Foulkes estimate   =    -447.59023778 Ry
     estimated scf accuracy    <          6.0E-09 Ry

     iteration # 15     ecut=    80.00 Ry     beta= 0.70
     Davidson diagonalization with overlap
     ethr =  1.39E-12,  avg # of iterations =  4.1

     total cpu time spent up to now is     8646.4 secs

     total energy              =    -447.59023778 Ry
     Harris-Foulkes estimate   =    -447.59023778 Ry
     estimated scf accuracy    <          3.1E-09 Ry

     iteration # 16     ecut=    80.00 Ry     beta= 0.70
     Davidson diagonalization with overlap
     ethr =  1.39E-12,  avg # of iterations =  4.0

     total cpu time spent up to now is     8722.2 secs

     total energy              =    -447.59023778 Ry
     Harris-Foulkes estimate   =    -447.59023778 Ry
     estimated scf accuracy    <          3.5E-12 Ry

     iteration # 17     ecut=    80.00 Ry     beta= 0.70
     Davidson diagonalization with overlap
     ethr =  1.00E-13,  avg # of iterations =  3.0

     total cpu time spent up to now is     8787.2 secs

     total energy              =    -447.59023778 Ry
     Harris-Foulkes estimate   =    -447.59023778 Ry
     estimated scf accuracy    <          2.8E-11 Ry

     iteration # 18     ecut=    80.00 Ry     beta= 0.70
     Davidson diagonalization with overlap
     ethr =  1.00E-13,  avg # of iterations =  2.0

     total cpu time spent up to now is     8844.5 secs

     End of self-consistent calculation

     Number of k-points >= 100: set verbosity='high' to print the bands.

     highest occupied level (ev):     8.9169

!    total energy              =    -447.59023778 Ry
     Harris-Foulkes estimate   =    -447.59023778 Ry
     estimated scf accuracy    <          1.6E-13 Ry

     The total energy is the sum of the following terms:

     one-electron contribution =    -125.48401359 Ry
     hartree contribution      =     101.47639787 Ry
     xc contribution           =    -122.07636045 Ry
     ewald contribution        =    -301.50626160 Ry

     convergence has been achieved in  18 iterations

     Forces acting on atoms (cartesian axes, Ry/au):

     atom    1 type  1   force =    -0.00000146   -0.00000146    0.00000000
     atom    2 type  1   force =     0.00000090    0.00000090    0.00000000
     atom    3 type  2   force =     0.00000087   -0.00000149    0.00000000
     atom    4 type  2   force =    -0.00000149    0.00000087    0.00000000
     atom    5 type  2   force =     0.00000184    0.00000184    0.00000000
     atom    6 type  2   force =    -0.00000067   -0.00000067    0.00000000

     Total force =     0.000004     Total SCF correction =     0.000000


     Computing stress (Cartesian axis) and pressure

          total   stress  (Ry/bohr**3)                   (kbar)     P=    0.22
   0.00000143   0.00000000   0.00000000          0.21      0.00      0.00
   0.00000000   0.00000143  -0.00000000          0.00      0.21     -0.00
   0.00000000  -0.00000000   0.00000161          0.00     -0.00      0.24


     Writing output data file SnO2.save
 
     init_run     :     51.99s CPU     52.46s WALL (       2 calls)
     electrons    :   8383.82s CPU   8480.71s WALL (      13 calls)
     update_pot   :     18.32s CPU     18.35s WALL (      11 calls)
     forces       :     77.66s CPU     77.93s WALL (      13 calls)
     stress       :    233.05s CPU    233.92s WALL (      13 calls)

     Called by init_run:
     wfcinit      :     50.14s CPU     50.59s WALL (       2 calls)
     potinit      :      0.65s CPU      0.65s WALL (       2 calls)
     hinit0       :      1.16s CPU      1.17s WALL (       2 calls)

     Called by electrons:
     c_bands      :   7385.32s CPU   7474.38s WALL (     125 calls)
     sum_band     :    994.43s CPU   1001.46s WALL (     125 calls)
     v_of_rho     :      3.63s CPU      3.65s WALL (     128 calls)
     mix_rho      :      0.65s CPU      0.67s WALL (     125 calls)

     Called by c_bands:
     init_us_2    :    154.66s CPU    157.32s WALL (   83678 calls)
     cegterg      :   6668.21s CPU   6754.35s WALL (   37625 calls)

     Called by sum_band:

     Called by *egterg:
     h_psi        :   5622.02s CPU   5711.67s WALL (  136315 calls)
     g_psi        :     59.82s CPU     60.05s WALL (   98088 calls)
     cdiaghg      :    187.24s CPU    179.56s WALL (  129392 calls)

     Called by h_psi:
     h_psi:pot    :   5588.55s CPU   5675.46s WALL (  136315 calls)
     h_psi:calbec :    375.04s CPU    360.49s WALL (  136315 calls)
     vloc_psi     :   4909.07s CPU   4952.40s WALL (  136315 calls)
     add_vuspsi   :    304.23s CPU    362.11s WALL (  136315 calls)

     General routines
     calbec       :    442.16s CPU    418.90s WALL (  155880 calls)
     fft          :      2.20s CPU      2.25s WALL (    1626 calls)
     ffts         :      0.18s CPU      0.17s WALL (     125 calls)
     fftw         :   5567.72s CPU   5412.45s WALL ( 6409598 calls)
 
     Parallel routines
     fft_scatt_xy :    238.33s CPU    532.93s WALL ( 6411349 calls)
     fft_scatt_yz :   2941.87s CPU    649.57s WALL ( 6411349 calls)
 
     PWSCF        :     2h26m CPU        2h27m WALL

 
   This run was terminated on:   4:55:46  11Apr2018            

=------------------------------------------------------------------------------=
   JOB DONE.
=------------------------------------------------------------------------------=
