
     Program PWSCF v.6.2.2 starts on  9Apr2018 at 16:40:40 

     This program is part of the open-source Quantum ESPRESSO suite
     for quantum simulation of materials; please cite
         "P. Giannozzi et al., J. Phys.:Condens. Matter 21 395502 (2009);
         "P. Giannozzi et al., J. Phys.:Condens. Matter 29 465901 (2017);
          URL http://www.quantum-espresso.org", 
     in publications or presentations arising from this work. More details at
     http://www.quantum-espresso.org/quote

     Parallel version (MPI), running on     2 processors

     MPI processes distributed on     1 nodes
     R & G space division:  proc/nbgrp/npool/nimage =       2
     Reading input from Conv_acell-ecut.in

     Current dimensions of program PWSCF are:
     Max number of different atomic species (ntypx) = 10
     Max number of k-points (npk) =  40000
     Max angular momentum in pseudopotentials (lmaxx) =  3

     Subspace diagonalization in iterative solution of the eigenvalue problem:
     a serial algorithm will be used

 
     Parallelization info
     --------------------
     sticks:   dense  smooth     PW     G-vecs:    dense   smooth      PW
     Min         728     728    218                13962    13962    2293
     Max         729     729    219                13963    13963    2294
     Sum        1457    1457    437                27925    27925    4587
 


     bravais-lattice index     =            6
     lattice parameter (alat)  =       9.1100  a.u.
     unit-cell volume          =     506.5589 (a.u.)^3
     number of atoms/cell      =            6
     number of atomic types    =            2
     number of electrons       =        52.00
     number of Kohn-Sham states=           26
     kinetic-energy cutoff     =      55.0000  Ry
     charge density cutoff     =     220.0000  Ry
     convergence threshold     =      1.0E-12
     mixing beta               =       0.7000
     number of iterations used =            8  plain     mixing
     Exchange-correlation      = PBE ( 1  4  3  4 0 0)
     nstep                     =           50


     celldm(1)=   9.110000  celldm(2)=   0.000000  celldm(3)=   0.670000
     celldm(4)=   0.000000  celldm(5)=   0.000000  celldm(6)=   0.000000

     crystal axes: (cart. coord. in units of alat)
               a(1) = (   1.000000   0.000000   0.000000 )  
               a(2) = (   0.000000   1.000000   0.000000 )  
               a(3) = (   0.000000   0.000000   0.670000 )  

     reciprocal axes: (cart. coord. in units 2 pi/alat)
               b(1) = (  1.000000  0.000000  0.000000 )  
               b(2) = (  0.000000  1.000000  0.000000 )  
               b(3) = (  0.000000  0.000000  1.492537 )  


     PseudoPot. # 1 for Sn read from file:
     ../../Pseudo_potentials/Sn_PBE.upf
     MD5 check sum: 78e6386ae56e929f0568ae8bf606a80c
     Pseudo is Norm-conserving + core correction, Zval = 14.0
     Generated using ONCVPSP code by D. R. Hamann
     Using radial grid of 1628 points,  6 beta functions with: 
                l(1) =   0
                l(2) =   0
                l(3) =   1
                l(4) =   1
                l(5) =   2
                l(6) =   2

     PseudoPot. # 2 for O  read from file:
     ../../Pseudo_potentials/O_PBE.upf
     MD5 check sum: 3e3f909f7470e8921608ab6b1f57bbae
     Pseudo is Norm-conserving + core correction, Zval =  6.0
     Generated using ONCVPSP code by D. R. Hamann
     Using radial grid of  936 points,  5 beta functions with: 
                l(1) =   0
                l(2) =   0
                l(3) =   1
                l(4) =   1
                l(5) =   2

     atomic species   valence    mass     pseudopotential
        Sn            14.00   118.71000     Sn( 1.00)
        O              6.00    15.99900     O ( 1.00)

      4 Sym. Ops. (no inversion) found



   Cartesian axes

     site n.     atom                  positions (alat units)
         1           Sn  tau(   1) = (   0.0000000   0.0000000   0.0000000  )
         2           Sn  tau(   2) = (   0.5000000   0.5000000   0.3350000  )
         3           O   tau(   3) = (   0.8060000   0.1930000   0.3350000  )
         4           O   tau(   4) = (   0.1930000   0.8060000   0.3350000  )
         5           O   tau(   5) = (   0.3060000   0.3060000   0.0000000  )
         6           O   tau(   6) = (   0.6930000   0.6930000   0.0000000  )

     number of k points=   301

     Number of k-points >= 100: set verbosity='high' to print them.

     Dense  grid:    27925 G-vectors     FFT dimensions: (  45,  45,  30)

     Estimated max dynamical RAM per process >     232.58 MB

     Estimated total dynamical RAM >     465.16 MB

     Check: negative/imaginary core charge=   -0.000076    0.000000

     Initial potential from superposition of free atoms

     starting charge   51.99690, renormalised to   52.00000
     Starting wfc are   34 randomized atomic wfcs

     total cpu time spent up to now is       24.4 secs

     Self-consistent Calculation

     iteration #  1     ecut=    55.00 Ry     beta= 0.70
     Davidson diagonalization with overlap
     ethr =  1.00E-02,  avg # of iterations =  2.0

     total cpu time spent up to now is       76.7 secs

     total energy              =    -446.77295912 Ry
     Harris-Foulkes estimate   =    -447.88519568 Ry
     estimated scf accuracy    <       1.52337871 Ry

     iteration #  2     ecut=    55.00 Ry     beta= 0.70
     Davidson diagonalization with overlap
     ethr =  2.93E-03,  avg # of iterations =  3.0

     total cpu time spent up to now is      142.2 secs

     total energy              =    -447.16285362 Ry
     Harris-Foulkes estimate   =    -447.90127953 Ry
     estimated scf accuracy    <       1.51304100 Ry

     iteration #  3     ecut=    55.00 Ry     beta= 0.70
     Davidson diagonalization with overlap
     ethr =  2.91E-03,  avg # of iterations =  3.0

     total cpu time spent up to now is      204.5 secs

     total energy              =    -447.46200719 Ry
     Harris-Foulkes estimate   =    -447.46265728 Ry
     estimated scf accuracy    <       0.00599390 Ry

     iteration #  4     ecut=    55.00 Ry     beta= 0.70
     Davidson diagonalization with overlap
     ethr =  1.15E-05,  avg # of iterations =  2.9

     total cpu time spent up to now is      271.7 secs

     total energy              =    -447.46485917 Ry
     Harris-Foulkes estimate   =    -447.46505310 Ry
     estimated scf accuracy    <       0.00041458 Ry

     iteration #  5     ecut=    55.00 Ry     beta= 0.70
     Davidson diagonalization with overlap
     ethr =  7.97E-07,  avg # of iterations =  3.0

     total cpu time spent up to now is      325.1 secs

     total energy              =    -447.46489210 Ry
     Harris-Foulkes estimate   =    -447.46490002 Ry
     estimated scf accuracy    <       0.00002702 Ry

     iteration #  6     ecut=    55.00 Ry     beta= 0.70
     Davidson diagonalization with overlap
     ethr =  5.20E-08,  avg # of iterations =  3.1

     total cpu time spent up to now is      398.1 secs

     total energy              =    -447.46495948 Ry
     Harris-Foulkes estimate   =    -447.46496291 Ry
     estimated scf accuracy    <       0.00000908 Ry

     iteration #  7     ecut=    55.00 Ry     beta= 0.70
     Davidson diagonalization with overlap
     ethr =  1.75E-08,  avg # of iterations =  3.1

     total cpu time spent up to now is      459.8 secs

     total energy              =    -447.46496089 Ry
     Harris-Foulkes estimate   =    -447.46496156 Ry
     estimated scf accuracy    <       0.00000153 Ry

     iteration #  8     ecut=    55.00 Ry     beta= 0.70
     Davidson diagonalization with overlap
     ethr =  2.95E-09,  avg # of iterations =  3.0

     total cpu time spent up to now is      527.5 secs

     total energy              =    -447.46496128 Ry
     Harris-Foulkes estimate   =    -447.46496131 Ry
     estimated scf accuracy    <       0.00000009 Ry

     iteration #  9     ecut=    55.00 Ry     beta= 0.70
     Davidson diagonalization with overlap
     ethr =  1.64E-10,  avg # of iterations =  3.0

     total cpu time spent up to now is      590.2 secs

     total energy              =    -447.46496129 Ry
     Harris-Foulkes estimate   =    -447.46496130 Ry
     estimated scf accuracy    <       0.00000002 Ry

     iteration # 10     ecut=    55.00 Ry     beta= 0.70
     Davidson diagonalization with overlap
     ethr =  4.47E-11,  avg # of iterations =  3.0

     total cpu time spent up to now is      649.6 secs

     total energy              =    -447.46496130 Ry
     Harris-Foulkes estimate   =    -447.46496130 Ry
     estimated scf accuracy    <          1.6E-09 Ry

     iteration # 11     ecut=    55.00 Ry     beta= 0.70
     Davidson diagonalization with overlap
     ethr =  3.00E-12,  avg # of iterations =  3.0

     total cpu time spent up to now is      716.5 secs

     total energy              =    -447.46496130 Ry
     Harris-Foulkes estimate   =    -447.46496130 Ry
     estimated scf accuracy    <          5.5E-11 Ry

     iteration # 12     ecut=    55.00 Ry     beta= 0.70
     Davidson diagonalization with overlap
     ethr =  1.07E-13,  avg # of iterations =  3.1

     total cpu time spent up to now is      783.8 secs

     total energy              =    -447.46496130 Ry
     Harris-Foulkes estimate   =    -447.46496130 Ry
     estimated scf accuracy    <          6.3E-12 Ry

     iteration # 13     ecut=    55.00 Ry     beta= 0.70
     Davidson diagonalization with overlap
     ethr =  1.00E-13,  avg # of iterations =  1.0

     total cpu time spent up to now is      830.5 secs

     End of self-consistent calculation

     Number of k-points >= 100: set verbosity='high' to print the bands.

     highest occupied level (ev):     9.0741

!    total energy              =    -447.46496130 Ry
     Harris-Foulkes estimate   =    -447.46496130 Ry
     estimated scf accuracy    <          5.7E-13 Ry

     The total energy is the sum of the following terms:

     one-electron contribution =    -123.82672849 Ry
     hartree contribution      =     100.91378533 Ry
     xc contribution           =    -122.07068233 Ry
     ewald contribution        =    -302.48133581 Ry

     convergence has been achieved in  13 iterations

     Forces acting on atoms (cartesian axes, Ry/au):

     atom    1 type  1   force =    -0.00109021   -0.00109021    0.00000000
     atom    2 type  1   force =    -0.00137414   -0.00137414    0.00000000
     atom    3 type  2   force =    -0.00014835    0.00012255    0.00000000
     atom    4 type  2   force =     0.00012255   -0.00014835    0.00000000
     atom    5 type  2   force =     0.00079721    0.00079721    0.00000000
     atom    6 type  2   force =     0.00169294    0.00169294    0.00000000

     Total force =     0.003637     Total SCF correction =     0.000002


     Computing stress (Cartesian axis) and pressure

          total   stress  (Ry/bohr**3)                   (kbar)     P= -252.38
  -0.00175444   0.00000016   0.00000000       -258.09      0.02      0.00
   0.00000016  -0.00175444   0.00000000          0.02   -258.09      0.00
  -0.00000000   0.00000000  -0.00163796         -0.00      0.00   -240.95


     BFGS Geometry Optimization

     number of scf cycles    =   1
     number of bfgs steps    =   0

     enthalpy new            =    -447.4649612979 Ry

     new trust radius        =       0.1974351143 bohr
     new conv_thr            =            1.0E-12 Ry

     new unit-cell volume =    444.13360 a.u.^3 (    65.81381 Ang^3 )
     density =      7.60498 g/cm^3

CELL_PARAMETERS (alat=  9.11000000)
   0.956138908   0.000000000   0.000000000
   0.000000000   0.956138908   0.000000000
   0.000000000   0.000000000   0.642564192

ATOMIC_POSITIONS (crystal)
Sn      -0.000119672  -0.000119672   0.000000000
Sn       0.499849161   0.499849161   0.500000000
O        0.805983716   0.193013452   0.500000000
O        0.193013452   0.805983716   0.500000000
O        0.306087509   0.306087509   0.000000000
O        0.693185833   0.693185833   0.000000000



     Writing output data file SnO2.save
     NEW-OLD atomic charge density approx. for the potential

     Check: negative/imaginary core charge=   -0.000037    0.000000
     extrapolated charge   44.69157, renormalised to   52.00000

     total cpu time spent up to now is      854.3 secs

     Self-consistent Calculation

     iteration #  1     ecut=    55.00 Ry     beta= 0.70
     Davidson diagonalization with overlap
     ethr =  1.00E-06,  avg # of iterations =  7.4

     total cpu time spent up to now is      981.4 secs

     total energy              =    -445.26653821 Ry
     Harris-Foulkes estimate   =    -461.27542453 Ry
     estimated scf accuracy    <       1.54698644 Ry

     iteration #  2     ecut=    55.00 Ry     beta= 0.70
     Davidson diagonalization with overlap
     ethr =  2.97E-03,  avg # of iterations =  3.4

     total cpu time spent up to now is     1057.7 secs

     total energy              =    -447.34058117 Ry
     Harris-Foulkes estimate   =    -448.48715662 Ry
     estimated scf accuracy    <       2.92454315 Ry

     iteration #  3     ecut=    55.00 Ry     beta= 0.70
     Davidson diagonalization with overlap
     ethr =  2.97E-03,  avg # of iterations =  2.0

     total cpu time spent up to now is     1116.3 secs

     total energy              =    -447.50801645 Ry
     Harris-Foulkes estimate   =    -447.60714458 Ry
     estimated scf accuracy    <       0.32481669 Ry

     iteration #  4     ecut=    55.00 Ry     beta= 0.70
     Davidson diagonalization with overlap
     ethr =  6.25E-04,  avg # of iterations =  1.0

     total cpu time spent up to now is     1163.0 secs

     total energy              =    -447.45202262 Ry
     Harris-Foulkes estimate   =    -447.52025241 Ry
     estimated scf accuracy    <       0.14177057 Ry

     iteration #  5     ecut=    55.00 Ry     beta= 0.70
     Davidson diagonalization with overlap
     ethr =  2.73E-04,  avg # of iterations =  2.0

     total cpu time spent up to now is     1220.7 secs

     total energy              =    -447.47371926 Ry
     Harris-Foulkes estimate   =    -447.47544964 Ry
     estimated scf accuracy    <       0.00252996 Ry

     iteration #  6     ecut=    55.00 Ry     beta= 0.70
     Davidson diagonalization with overlap
     ethr =  4.87E-06,  avg # of iterations =  2.8

     total cpu time spent up to now is     1289.5 secs

     total energy              =    -447.47452949 Ry
     Harris-Foulkes estimate   =    -447.47458496 Ry
     estimated scf accuracy    <       0.00008094 Ry

     iteration #  7     ecut=    55.00 Ry     beta= 0.70
     Davidson diagonalization with overlap
     ethr =  1.56E-07,  avg # of iterations =  3.0

     total cpu time spent up to now is     1361.4 secs

     total energy              =    -447.47456071 Ry
     Harris-Foulkes estimate   =    -447.47457938 Ry
     estimated scf accuracy    <       0.00006049 Ry

     iteration #  8     ecut=    55.00 Ry     beta= 0.70
     Davidson diagonalization with overlap
     ethr =  1.16E-07,  avg # of iterations =  1.2

     total cpu time spent up to now is     1409.0 secs

     total energy              =    -447.47455255 Ry
     Harris-Foulkes estimate   =    -447.47456321 Ry
     estimated scf accuracy    <       0.00001865 Ry

     iteration #  9     ecut=    55.00 Ry     beta= 0.70
     Davidson diagonalization with overlap
     ethr =  3.59E-08,  avg # of iterations =  2.1

     total cpu time spent up to now is     1475.8 secs

     total energy              =    -447.47455777 Ry
     Harris-Foulkes estimate   =    -447.47455785 Ry
     estimated scf accuracy    <       0.00000050 Ry

     iteration # 10     ecut=    55.00 Ry     beta= 0.70
     Davidson diagonalization with overlap
     ethr =  9.63E-10,  avg # of iterations =  2.0

     total cpu time spent up to now is     1527.5 secs

     total energy              =    -447.47455767 Ry
     Harris-Foulkes estimate   =    -447.47455780 Ry
     estimated scf accuracy    <       0.00000029 Ry

     iteration # 11     ecut=    55.00 Ry     beta= 0.70
     Davidson diagonalization with overlap
     ethr =  5.58E-10,  avg # of iterations =  2.1

     total cpu time spent up to now is     1586.4 secs

     total energy              =    -447.47455771 Ry
     Harris-Foulkes estimate   =    -447.47455771 Ry
     estimated scf accuracy    <          6.1E-09 Ry

     iteration # 12     ecut=    55.00 Ry     beta= 0.70
     Davidson diagonalization with overlap
     ethr =  1.18E-11,  avg # of iterations =  3.0

     total cpu time spent up to now is     1654.8 secs

     total energy              =    -447.47455771 Ry
     Harris-Foulkes estimate   =    -447.47455771 Ry
     estimated scf accuracy    <          6.9E-10 Ry

     iteration # 13     ecut=    55.00 Ry     beta= 0.70
     Davidson diagonalization with overlap
     ethr =  1.33E-12,  avg # of iterations =  3.0

     total cpu time spent up to now is     1716.9 secs

     total energy              =    -447.47455771 Ry
     Harris-Foulkes estimate   =    -447.47455771 Ry
     estimated scf accuracy    <          3.9E-10 Ry

     iteration # 14     ecut=    55.00 Ry     beta= 0.70
     Davidson diagonalization with overlap
     ethr =  7.41E-13,  avg # of iterations =  2.9

     total cpu time spent up to now is     1775.7 secs

     total energy              =    -447.47455771 Ry
     Harris-Foulkes estimate   =    -447.47455771 Ry
     estimated scf accuracy    <          4.4E-11 Ry

     iteration # 15     ecut=    55.00 Ry     beta= 0.70
     Davidson diagonalization with overlap
     ethr =  1.00E-13,  avg # of iterations =  3.0

     total cpu time spent up to now is     1837.2 secs

     total energy              =    -447.47455771 Ry
     Harris-Foulkes estimate   =    -447.47455771 Ry
     estimated scf accuracy    <          3.4E-12 Ry

     iteration # 16     ecut=    55.00 Ry     beta= 0.70
     Davidson diagonalization with overlap
     ethr =  1.00E-13,  avg # of iterations =  1.0

     total cpu time spent up to now is     1884.0 secs

     End of self-consistent calculation

     Number of k-points >= 100: set verbosity='high' to print the bands.

     highest occupied level (ev):    11.1067

!    total energy              =    -447.47455771 Ry
     Harris-Foulkes estimate   =    -447.47455771 Ry
     estimated scf accuracy    <          5.9E-14 Ry

     The total energy is the sum of the following terms:

     one-electron contribution =    -103.69503666 Ry
     hartree contribution      =      95.10485295 Ry
     xc contribution           =    -122.74307105 Ry
     ewald contribution        =    -316.14130295 Ry

     convergence has been achieved in  16 iterations

     Forces acting on atoms (cartesian axes, Ry/au):

     atom    1 type  1   force =    -0.00100363   -0.00100363    0.00000000
     atom    2 type  1   force =    -0.00067679   -0.00067679    0.00000000
     atom    3 type  2   force =    -0.01517736    0.01518470    0.00000000
     atom    4 type  2   force =     0.01518470   -0.01517736    0.00000000
     atom    5 type  2   force =    -0.01412538   -0.01412538    0.00000000
     atom    6 type  2   force =     0.01579847    0.01579847    0.00000000

     Total force =     0.042697     Total SCF correction =     0.000001


     Computing stress (Cartesian axis) and pressure

          total   stress  (Ry/bohr**3)                   (kbar)     P=  237.69
   0.00137989   0.00000050   0.00000000        202.99      0.07      0.00
   0.00000050   0.00137989   0.00000000          0.07    202.99      0.00
   0.00000000   0.00000000   0.00208748          0.00      0.00    307.08


     number of scf cycles    =   2
     number of bfgs steps    =   1

     enthalpy old            =    -447.4649612979 Ry
     enthalpy new            =    -447.4745577108 Ry

     CASE: enthalpy_new < enthalpy_old

     new trust radius        =       0.1100114383 bohr
     new conv_thr            =            1.0E-12 Ry

     new unit-cell volume =    471.41507 a.u.^3 (    69.85651 Ang^3 )
     density =      7.16487 g/cm^3

CELL_PARAMETERS (alat=  9.11000000)
   0.972458166   0.000000000   0.000000000
   0.000000000   0.972458166   0.000000000
   0.000000000   0.000000000   0.659335524

ATOMIC_POSITIONS (crystal)
Sn      -0.000178432  -0.000178432   0.000000000
Sn       0.499808371   0.499808371   0.500000000
O        0.805124939   0.193872597   0.500000000
O        0.193872597   0.805124939   0.500000000
O        0.305289964   0.305289964   0.000000000
O        0.694082562   0.694082562   0.000000000



     Writing output data file SnO2.save
     NEW-OLD atomic charge density approx. for the potential

     Check: negative/imaginary core charge=   -0.000052    0.000000

     negative rho (up, down):  1.166E-07 0.000E+00
     extrapolated charge   55.00914, renormalised to   52.00000

     total cpu time spent up to now is     1908.0 secs

     Self-consistent Calculation

     iteration #  1     ecut=    55.00 Ry     beta= 0.70
     Davidson diagonalization with overlap
     ethr =  1.00E-06,  avg # of iterations =  5.6

     total cpu time spent up to now is     2022.5 secs

     total energy              =    -447.01497389 Ry
     Harris-Foulkes estimate   =    -441.32622129 Ry
     estimated scf accuracy    <       0.28750758 Ry

     iteration #  2     ecut=    55.00 Ry     beta= 0.70
     Davidson diagonalization with overlap
     ethr =  5.53E-04,  avg # of iterations =  4.0

     total cpu time spent up to now is     2108.9 secs

     total energy              =    -447.48176638 Ry
     Harris-Foulkes estimate   =    -447.74508523 Ry
     estimated scf accuracy    <       0.70876836 Ry

     iteration #  3     ecut=    55.00 Ry     beta= 0.70
     Davidson diagonalization with overlap
     ethr =  5.53E-04,  avg # of iterations =  2.0

     total cpu time spent up to now is     2167.8 secs

     total energy              =    -447.51417040 Ry
     Harris-Foulkes estimate   =    -447.53902731 Ry
     estimated scf accuracy    <       0.10125504 Ry

     iteration #  4     ecut=    55.00 Ry     beta= 0.70
     Davidson diagonalization with overlap
     ethr =  1.95E-04,  avg # of iterations =  1.0

     total cpu time spent up to now is     2214.6 secs

     total energy              =    -447.49575458 Ry
     Harris-Foulkes estimate   =    -447.51636304 Ry
     estimated scf accuracy    <       0.05442530 Ry

     iteration #  5     ecut=    55.00 Ry     beta= 0.70
     Davidson diagonalization with overlap
     ethr =  1.05E-04,  avg # of iterations =  2.0

     total cpu time spent up to now is     2266.2 secs

     total energy              =    -447.49544638 Ry
     Harris-Foulkes estimate   =    -447.49979435 Ry
     estimated scf accuracy    <       0.00865762 Ry

     iteration #  6     ecut=    55.00 Ry     beta= 0.70
     Davidson diagonalization with overlap
     ethr =  1.66E-05,  avg # of iterations =  2.7

     total cpu time spent up to now is     2331.8 secs

     total energy              =    -447.49698866 Ry
     Harris-Foulkes estimate   =    -447.49698771 Ry
     estimated scf accuracy    <       0.00018640 Ry

     iteration #  7     ecut=    55.00 Ry     beta= 0.70
     Davidson diagonalization with overlap
     ethr =  3.58E-07,  avg # of iterations =  2.7

     total cpu time spent up to now is     2391.9 secs

     total energy              =    -447.49683969 Ry
     Harris-Foulkes estimate   =    -447.49701823 Ry
     estimated scf accuracy    <       0.00030503 Ry

     iteration #  8     ecut=    55.00 Ry     beta= 0.70
     Davidson diagonalization with overlap
     ethr =  3.58E-07,  avg # of iterations =  2.0

     total cpu time spent up to now is     2458.2 secs

     total energy              =    -447.49690024 Ry
     Harris-Foulkes estimate   =    -447.49690078 Ry
     estimated scf accuracy    <       0.00000156 Ry

     iteration #  9     ecut=    55.00 Ry     beta= 0.70
     Davidson diagonalization with overlap
     ethr =  3.00E-09,  avg # of iterations =  3.7

     total cpu time spent up to now is     2529.3 secs

     total energy              =    -447.49690081 Ry
     Harris-Foulkes estimate   =    -447.49690151 Ry
     estimated scf accuracy    <       0.00000202 Ry

     iteration # 10     ecut=    55.00 Ry     beta= 0.70
     Davidson diagonalization with overlap
     ethr =  3.00E-09,  avg # of iterations =  2.0

     total cpu time spent up to now is     2584.0 secs

     total energy              =    -447.49690079 Ry
     Harris-Foulkes estimate   =    -447.49690096 Ry
     estimated scf accuracy    <       0.00000052 Ry

     iteration # 11     ecut=    55.00 Ry     beta= 0.70
     Davidson diagonalization with overlap
     ethr =  9.90E-10,  avg # of iterations =  3.0

     total cpu time spent up to now is     2643.4 secs

     total energy              =    -447.49690083 Ry
     Harris-Foulkes estimate   =    -447.49690085 Ry
     estimated scf accuracy    <       0.00000004 Ry

     iteration # 12     ecut=    55.00 Ry     beta= 0.70
     Davidson diagonalization with overlap
     ethr =  7.98E-11,  avg # of iterations =  3.0

     total cpu time spent up to now is     2706.7 secs

     total energy              =    -447.49690084 Ry
     Harris-Foulkes estimate   =    -447.49690084 Ry
     estimated scf accuracy    <          1.2E-09 Ry

     iteration # 13     ecut=    55.00 Ry     beta= 0.70
     Davidson diagonalization with overlap
     ethr =  2.33E-12,  avg # of iterations =  3.0

     total cpu time spent up to now is     2768.7 secs

     total energy              =    -447.49690084 Ry
     Harris-Foulkes estimate   =    -447.49690084 Ry
     estimated scf accuracy    <          1.7E-11 Ry

     iteration # 14     ecut=    55.00 Ry     beta= 0.70
     Davidson diagonalization with overlap
     ethr =  1.00E-13,  avg # of iterations =  3.0

     total cpu time spent up to now is     2832.0 secs

     total energy              =    -447.49690084 Ry
     Harris-Foulkes estimate   =    -447.49690084 Ry
     estimated scf accuracy    <          1.7E-11 Ry

     iteration # 15     ecut=    55.00 Ry     beta= 0.70
     Davidson diagonalization with overlap
     ethr =  1.00E-13,  avg # of iterations =  1.0

     total cpu time spent up to now is     2879.2 secs

     total energy              =    -447.49690084 Ry
     Harris-Foulkes estimate   =    -447.49690084 Ry
     estimated scf accuracy    <          2.1E-12 Ry

     iteration # 16     ecut=    55.00 Ry     beta= 0.70
     Davidson diagonalization with overlap
     ethr =  1.00E-13,  avg # of iterations =  1.0

     total cpu time spent up to now is     2926.1 secs

     End of self-consistent calculation

     Number of k-points >= 100: set verbosity='high' to print the bands.

     highest occupied level (ev):    10.1612

!    total energy              =    -447.49690084 Ry
     Harris-Foulkes estimate   =    -447.49690084 Ry
     estimated scf accuracy    <          3.4E-13 Ry

     The total energy is the sum of the following terms:

     one-electron contribution =    -112.13119540 Ry
     hartree contribution      =      97.34328808 Ry
     xc contribution           =    -122.41859141 Ry
     ewald contribution        =    -310.29040211 Ry

     convergence has been achieved in  16 iterations

     Forces acting on atoms (cartesian axes, Ry/au):

     atom    1 type  1   force =    -0.00050306   -0.00050306    0.00000000
     atom    2 type  1   force =    -0.00026865   -0.00026865    0.00000000
     atom    3 type  2   force =    -0.00166411    0.00185741    0.00000000
     atom    4 type  2   force =     0.00185741   -0.00166411    0.00000000
     atom    5 type  2   force =    -0.00147467   -0.00147467    0.00000000
     atom    6 type  2   force =     0.00205307    0.00205307    0.00000000

     Total force =     0.005086     Total SCF correction =     0.000001


     Computing stress (Cartesian axis) and pressure

          total   stress  (Ry/bohr**3)                   (kbar)     P=   -4.94
  -0.00005078   0.00000028   0.00000000         -7.47      0.04      0.00
   0.00000028  -0.00005078   0.00000000          0.04     -7.47      0.00
   0.00000000   0.00000000   0.00000082          0.00      0.00      0.12


     number of scf cycles    =   3
     number of bfgs steps    =   2

     enthalpy old            =    -447.4745577108 Ry
     enthalpy new            =    -447.4969008404 Ry

     CASE: enthalpy_new < enthalpy_old

     new trust radius        =       0.0043296794 bohr
     new conv_thr            =            1.0E-12 Ry

     new unit-cell volume =    470.68128 a.u.^3 (    69.74777 Ang^3 )
     density =      7.17604 g/cm^3

CELL_PARAMETERS (alat=  9.11000000)
   0.971488561   0.000000000   0.000000000
   0.000000000   0.971488561   0.000000000
   0.000000000   0.000000000   0.659623944

ATOMIC_POSITIONS (crystal)
Sn      -0.000232822  -0.000232822   0.000000000
Sn       0.499778927   0.499778927   0.500000000
O        0.804932420   0.194085448   0.500000000
O        0.194085448   0.804932420   0.500000000
O        0.305118861   0.305118861   0.000000000
O        0.694317166   0.694317166   0.000000000



     Writing output data file SnO2.save
     NEW-OLD atomic charge density approx. for the potential

     Check: negative/imaginary core charge=   -0.000052    0.000000
     extrapolated charge   51.91894, renormalised to   52.00000

     total cpu time spent up to now is     2950.1 secs

     Self-consistent Calculation

     iteration #  1     ecut=    55.00 Ry     beta= 0.70
     Davidson diagonalization with overlap
     ethr =  1.00E-06,  avg # of iterations =  3.1

     total cpu time spent up to now is     3029.4 secs

     total energy              =    -447.49663310 Ry
     Harris-Foulkes estimate   =    -447.66170550 Ry
     estimated scf accuracy    <       0.00018601 Ry

     iteration #  2     ecut=    55.00 Ry     beta= 0.70
     Davidson diagonalization with overlap
     ethr =  3.58E-07,  avg # of iterations =  4.0

     total cpu time spent up to now is     3112.0 secs

     total energy              =    -447.49693387 Ry
     Harris-Foulkes estimate   =    -447.49710149 Ry
     estimated scf accuracy    <       0.00045249 Ry

     iteration #  3     ecut=    55.00 Ry     beta= 0.70
     Davidson diagonalization with overlap
     ethr =  3.58E-07,  avg # of iterations =  2.0

     total cpu time spent up to now is     3170.7 secs

     total energy              =    -447.49695450 Ry
     Harris-Foulkes estimate   =    -447.49697095 Ry
     estimated scf accuracy    <       0.00006280 Ry

     iteration #  4     ecut=    55.00 Ry     beta= 0.70
     Davidson diagonalization with overlap
     ethr =  1.21E-07,  avg # of iterations =  1.0

     total cpu time spent up to now is     3217.4 secs

     total energy              =    -447.49693961 Ry
     Harris-Foulkes estimate   =    -447.49695614 Ry
     estimated scf accuracy    <       0.00003207 Ry

     iteration #  5     ecut=    55.00 Ry     beta= 0.70
     Davidson diagonalization with overlap
     ethr =  6.17E-08,  avg # of iterations =  2.0

     total cpu time spent up to now is     3277.8 secs

     total energy              =    -447.49694491 Ry
     Harris-Foulkes estimate   =    -447.49694504 Ry
     estimated scf accuracy    <       0.00000024 Ry

     iteration #  6     ecut=    55.00 Ry     beta= 0.70
     Davidson diagonalization with overlap
     ethr =  4.66E-10,  avg # of iterations =  3.8

     total cpu time spent up to now is     3346.3 secs

     total energy              =    -447.49694500 Ry
     Harris-Foulkes estimate   =    -447.49694501 Ry
     estimated scf accuracy    <       0.00000002 Ry

     iteration #  7     ecut=    55.00 Ry     beta= 0.70
     Davidson diagonalization with overlap
     ethr =  4.49E-11,  avg # of iterations =  2.0

     total cpu time spent up to now is     3398.2 secs

     total energy              =    -447.49694500 Ry
     Harris-Foulkes estimate   =    -447.49694500 Ry
     estimated scf accuracy    <       0.00000001 Ry

     iteration #  8     ecut=    55.00 Ry     beta= 0.70
     Davidson diagonalization with overlap
     ethr =  1.93E-11,  avg # of iterations =  2.0

     total cpu time spent up to now is     3450.1 secs

     total energy              =    -447.49694500 Ry
     Harris-Foulkes estimate   =    -447.49694500 Ry
     estimated scf accuracy    <          1.9E-09 Ry

     iteration #  9     ecut=    55.00 Ry     beta= 0.70
     Davidson diagonalization with overlap
     ethr =  3.68E-12,  avg # of iterations =  2.5

     total cpu time spent up to now is     3508.2 secs

     total energy              =    -447.49694500 Ry
     Harris-Foulkes estimate   =    -447.49694500 Ry
     estimated scf accuracy    <          1.4E-10 Ry

     iteration # 10     ecut=    55.00 Ry     beta= 0.70
     Davidson diagonalization with overlap
     ethr =  2.73E-13,  avg # of iterations =  2.0

     total cpu time spent up to now is     3557.3 secs

     total energy              =    -447.49694500 Ry
     Harris-Foulkes estimate   =    -447.49694500 Ry
     estimated scf accuracy    <          4.9E-11 Ry

     iteration # 11     ecut=    55.00 Ry     beta= 0.70
     Davidson diagonalization with overlap
     ethr =  1.00E-13,  avg # of iterations =  2.0

     total cpu time spent up to now is     3622.4 secs

     End of self-consistent calculation

     Number of k-points >= 100: set verbosity='high' to print the bands.

     highest occupied level (ev):    10.1862

!    total energy              =    -447.49694500 Ry
     Harris-Foulkes estimate   =    -447.49694500 Ry
     estimated scf accuracy    <          3.9E-13 Ry

     The total energy is the sum of the following terms:

     one-electron contribution =    -111.77180814 Ry
     hartree contribution      =      97.21483800 Ry
     xc contribution           =    -122.42472748 Ry
     ewald contribution        =    -310.51524737 Ry

     convergence has been achieved in  11 iterations

     Forces acting on atoms (cartesian axes, Ry/au):

     atom    1 type  1   force =    -0.00016984   -0.00016984    0.00000000
     atom    2 type  1   force =    -0.00011262   -0.00011262    0.00000000
     atom    3 type  2   force =    -0.00051559    0.00075238    0.00000000
     atom    4 type  2   force =     0.00075238   -0.00051559    0.00000000
     atom    5 type  2   force =    -0.00060847   -0.00060847    0.00000000
     atom    6 type  2   force =     0.00065415    0.00065415    0.00000000

     Total force =     0.001828     Total SCF correction =     0.000001


     Computing stress (Cartesian axis) and pressure

          total   stress  (Ry/bohr**3)                   (kbar)     P=   -0.22
  -0.00000410   0.00000028   0.00000000         -0.60      0.04      0.00
   0.00000028  -0.00000410   0.00000000          0.04     -0.60      0.00
   0.00000000  -0.00000000   0.00000379          0.00     -0.00      0.56


     number of scf cycles    =   4
     number of bfgs steps    =   3

     enthalpy old            =    -447.4969008404 Ry
     enthalpy new            =    -447.4969449958 Ry

     CASE: enthalpy_new < enthalpy_old

     new trust radius        =       0.0011655464 bohr
     new conv_thr            =            1.0E-12 Ry

     new unit-cell volume =    470.59700 a.u.^3 (    69.73528 Ang^3 )
     density =      7.17733 g/cm^3

CELL_PARAMETERS (alat=  9.11000000)
   0.971337754   0.000000000   0.000000000
   0.000000000   0.971337754   0.000000000
   0.000000000   0.000000000   0.659710635

ATOMIC_POSITIONS (crystal)
Sn      -0.000256632  -0.000256632   0.000000000
Sn       0.499763245   0.499763245   0.500000000
O        0.804858702   0.194190781   0.500000000
O        0.194190781   0.804858702   0.500000000
O        0.305033615   0.305033615   0.000000000
O        0.694410289   0.694410289   0.000000000



     Writing output data file SnO2.save
     NEW-OLD atomic charge density approx. for the potential

     Check: negative/imaginary core charge=   -0.000052    0.000000
     extrapolated charge   51.99069, renormalised to   52.00000

     total cpu time spent up to now is     3646.7 secs

     Self-consistent Calculation

     iteration #  1     ecut=    55.00 Ry     beta= 0.70
     Davidson diagonalization with overlap
     ethr =  1.00E-06,  avg # of iterations =  2.6

     Threshold (ethr) on eigenvalues was too large:
     Diagonalizing with lowered threshold

     Davidson diagonalization with overlap
     ethr =  4.65E-09,  avg # of iterations =  3.1

     total cpu time spent up to now is     3777.3 secs

     total energy              =    -447.49694382 Ry
     Harris-Foulkes estimate   =    -447.51586957 Ry
     estimated scf accuracy    <       0.00000279 Ry

     iteration #  2     ecut=    55.00 Ry     beta= 0.70
     Davidson diagonalization with overlap
     ethr =  5.36E-09,  avg # of iterations =  4.0

     total cpu time spent up to now is     3858.0 secs

     total energy              =    -447.49694763 Ry
     Harris-Foulkes estimate   =    -447.49694988 Ry
     estimated scf accuracy    <       0.00000596 Ry

     iteration #  3     ecut=    55.00 Ry     beta= 0.70
     Davidson diagonalization with overlap
     ethr =  5.36E-09,  avg # of iterations =  2.0

     total cpu time spent up to now is     3917.4 secs

     total energy              =    -447.49694787 Ry
     Harris-Foulkes estimate   =    -447.49694814 Ry
     estimated scf accuracy    <       0.00000076 Ry

     iteration #  4     ecut=    55.00 Ry     beta= 0.70
     Davidson diagonalization with overlap
     ethr =  1.46E-09,  avg # of iterations =  2.0

     total cpu time spent up to now is     3968.5 secs

     total energy              =    -447.49694777 Ry
     Harris-Foulkes estimate   =    -447.49694791 Ry
     estimated scf accuracy    <       0.00000027 Ry

     iteration #  5     ecut=    55.00 Ry     beta= 0.70
     Davidson diagonalization with overlap
     ethr =  5.19E-10,  avg # of iterations =  2.1

     total cpu time spent up to now is     4029.7 secs

     total energy              =    -447.49694783 Ry
     Harris-Foulkes estimate   =    -447.49694783 Ry
     estimated scf accuracy    <          3.9E-09 Ry

     iteration #  6     ecut=    55.00 Ry     beta= 0.70
     Davidson diagonalization with overlap
     ethr =  7.41E-12,  avg # of iterations =  3.0

     total cpu time spent up to now is     4100.3 secs

     total energy              =    -447.49694783 Ry
     Harris-Foulkes estimate   =    -447.49694783 Ry
     estimated scf accuracy    <          6.6E-11 Ry

     iteration #  7     ecut=    55.00 Ry     beta= 0.70
     Davidson diagonalization with overlap
     ethr =  1.28E-13,  avg # of iterations =  3.0

     total cpu time spent up to now is     4162.9 secs

     total energy              =    -447.49694783 Ry
     Harris-Foulkes estimate   =    -447.49694783 Ry
     estimated scf accuracy    <          3.3E-11 Ry

     iteration #  8     ecut=    55.00 Ry     beta= 0.70
     Davidson diagonalization with overlap
     ethr =  1.00E-13,  avg # of iterations =  2.0

     total cpu time spent up to now is     4216.5 secs

     total energy              =    -447.49694783 Ry
     Harris-Foulkes estimate   =    -447.49694783 Ry
     estimated scf accuracy    <          3.8E-12 Ry

     iteration #  9     ecut=    55.00 Ry     beta= 0.70
     Davidson diagonalization with overlap
     ethr =  1.00E-13,  avg # of iterations =  1.0

     total cpu time spent up to now is     4263.2 secs

     End of self-consistent calculation

     Number of k-points >= 100: set verbosity='high' to print the bands.

     highest occupied level (ev):    10.1894

!    total energy              =    -447.49694783 Ry
     Harris-Foulkes estimate   =    -447.49694783 Ry
     estimated scf accuracy    <          3.5E-13 Ry

     The total energy is the sum of the following terms:

     one-electron contribution =    -111.71085593 Ry
     hartree contribution      =      97.19004172 Ry
     xc contribution           =    -122.42512409 Ry
     ewald contribution        =    -310.55100953 Ry

     convergence has been achieved in   9 iterations

     Forces acting on atoms (cartesian axes, Ry/au):

     atom    1 type  1   force =    -0.00005767   -0.00005767    0.00000000
     atom    2 type  1   force =    -0.00007184   -0.00007184    0.00000000
     atom    3 type  2   force =    -0.00003916    0.00026693    0.00000000
     atom    4 type  2   force =     0.00026693   -0.00003916   -0.00000000
     atom    5 type  2   force =    -0.00020134   -0.00020134    0.00000000
     atom    6 type  2   force =     0.00010308    0.00010308    0.00000000

     Total force =     0.000515     Total SCF correction =     0.000001


     Computing stress (Cartesian axis) and pressure

          total   stress  (Ry/bohr**3)                   (kbar)     P=    0.15
   0.00000220   0.00000028  -0.00000000          0.32      0.04     -0.00
   0.00000028   0.00000220   0.00000000          0.04      0.32      0.00
  -0.00000000   0.00000000  -0.00000136         -0.00      0.00     -0.20


     number of scf cycles    =   5
     number of bfgs steps    =   4

     enthalpy old            =    -447.4969449958 Ry
     enthalpy new            =    -447.4969478314 Ry

     CASE: enthalpy_new < enthalpy_old

     new trust radius        =       0.0004044391 bohr
     new conv_thr            =            1.0E-12 Ry

     new unit-cell volume =    470.60598 a.u.^3 (    69.73661 Ang^3 )
     density =      7.17719 g/cm^3

CELL_PARAMETERS (alat=  9.11000000)
   0.971366177   0.000000000   0.000000000
   0.000000000   0.971366177   0.000000000
   0.000000000   0.000000000   0.659684614

ATOMIC_POSITIONS (crystal)
Sn      -0.000266017  -0.000266017   0.000000000
Sn       0.499752979   0.499752979   0.500000000
O        0.804846946   0.194233043   0.500000000
O        0.194233043   0.804846946   0.500000000
O        0.305001296   0.305001296   0.000000000
O        0.694431752   0.694431752   0.000000000



     Writing output data file SnO2.save
     NEW-OLD atomic charge density approx. for the potential

     Check: negative/imaginary core charge=   -0.000052    0.000000
     extrapolated charge   52.00099, renormalised to   52.00000

     total cpu time spent up to now is     4287.0 secs

     Self-consistent Calculation

     iteration #  1     ecut=    55.00 Ry     beta= 0.70
     Davidson diagonalization with overlap
     ethr =  1.00E-06,  avg # of iterations =  2.0

     Threshold (ethr) on eigenvalues was too large:
     Diagonalizing with lowered threshold

     Davidson diagonalization with overlap
     ethr =  5.21E-10,  avg # of iterations =  3.0

     total cpu time spent up to now is     4419.3 secs

     total energy              =    -447.49694810 Ry
     Harris-Foulkes estimate   =    -447.49493246 Ry
     estimated scf accuracy    <       0.00000012 Ry

     iteration #  2     ecut=    55.00 Ry     beta= 0.70
     Davidson diagonalization with overlap
     ethr =  2.36E-10,  avg # of iterations =  3.0

     total cpu time spent up to now is     4491.0 secs

     total energy              =    -447.49694816 Ry
     Harris-Foulkes estimate   =    -447.49694819 Ry
     estimated scf accuracy    <       0.00000007 Ry

     iteration #  3     ecut=    55.00 Ry     beta= 0.70
     Davidson diagonalization with overlap
     ethr =  1.44E-10,  avg # of iterations =  2.0

     total cpu time spent up to now is     4549.6 secs

     total energy              =    -447.49694817 Ry
     Harris-Foulkes estimate   =    -447.49694817 Ry
     estimated scf accuracy    <          3.2E-09 Ry

     iteration #  4     ecut=    55.00 Ry     beta= 0.70
     Davidson diagonalization with overlap
     ethr =  6.13E-12,  avg # of iterations =  2.7

     total cpu time spent up to now is     4616.2 secs

     total energy              =    -447.49694817 Ry
     Harris-Foulkes estimate   =    -447.49694817 Ry
     estimated scf accuracy    <          7.5E-10 Ry

     iteration #  5     ecut=    55.00 Ry     beta= 0.70
     Davidson diagonalization with overlap
     ethr =  1.45E-12,  avg # of iterations =  2.4

     total cpu time spent up to now is     4675.2 secs

     total energy              =    -447.49694817 Ry
     Harris-Foulkes estimate   =    -447.49694817 Ry
     estimated scf accuracy    <          7.4E-11 Ry

     iteration #  6     ecut=    55.00 Ry     beta= 0.70
     Davidson diagonalization with overlap
     ethr =  1.42E-13,  avg # of iterations =  3.1

     total cpu time spent up to now is     4737.0 secs

     total energy              =    -447.49694817 Ry
     Harris-Foulkes estimate   =    -447.49694817 Ry
     estimated scf accuracy    <          1.1E-11 Ry

     iteration #  7     ecut=    55.00 Ry     beta= 0.70
     Davidson diagonalization with overlap
     ethr =  1.00E-13,  avg # of iterations =  1.8

     total cpu time spent up to now is     4784.9 secs

     End of self-consistent calculation

     Number of k-points >= 100: set verbosity='high' to print the bands.

     highest occupied level (ev):    10.1892

!    total energy              =    -447.49694817 Ry
     Harris-Foulkes estimate   =    -447.49694817 Ry
     estimated scf accuracy    <          2.4E-13 Ry

     The total energy is the sum of the following terms:

     one-electron contribution =    -111.71246481 Ry
     hartree contribution      =      97.19000410 Ry
     xc contribution           =    -122.42499937 Ry
     ewald contribution        =    -310.54948809 Ry

     convergence has been achieved in   7 iterations

     Forces acting on atoms (cartesian axes, Ry/au):

     atom    1 type  1   force =    -0.00004369   -0.00004369    0.00000000
     atom    2 type  1   force =    -0.00006452   -0.00006452    0.00000000
     atom    3 type  2   force =     0.00007155    0.00013232    0.00000000
     atom    4 type  2   force =     0.00013232    0.00007155    0.00000000
     atom    5 type  2   force =    -0.00007840   -0.00007840    0.00000000
     atom    6 type  2   force =    -0.00001726   -0.00001726    0.00000000

     Total force =     0.000265     Total SCF correction =     0.000001


     Computing stress (Cartesian axis) and pressure

          total   stress  (Ry/bohr**3)                   (kbar)     P=    0.06
   0.00000133   0.00000028   0.00000000          0.20      0.04      0.00
   0.00000028   0.00000133   0.00000000          0.04      0.20      0.00
   0.00000000   0.00000000  -0.00000138          0.00      0.00     -0.20


     number of scf cycles    =   6
     number of bfgs steps    =   5

     enthalpy old            =    -447.4969478314 Ry
     enthalpy new            =    -447.4969481685 Ry

     CASE: enthalpy_new < enthalpy_old

     new trust radius        =       0.0003676386 bohr
     new conv_thr            =            1.0E-12 Ry

     new unit-cell volume =    470.61906 a.u.^3 (    69.73855 Ang^3 )
     density =      7.17699 g/cm^3

CELL_PARAMETERS (alat=  9.11000000)
   0.971412288   0.000000000   0.000000000
   0.000000000   0.971412288   0.000000000
   0.000000000   0.000000000   0.659640321

ATOMIC_POSITIONS (crystal)
Sn      -0.000277947  -0.000277947   0.000000000
Sn       0.499737459   0.499737459   0.500000000
O        0.804853246   0.194274108   0.500000000
O        0.194274108   0.804853246   0.500000000
O        0.304973963   0.304973963   0.000000000
O        0.694439171   0.694439171   0.000000000



     Writing output data file SnO2.save
     NEW-OLD atomic charge density approx. for the potential

     Check: negative/imaginary core charge=   -0.000052    0.000000
     extrapolated charge   52.00145, renormalised to   52.00000

     total cpu time spent up to now is     4808.7 secs

     Self-consistent Calculation

     iteration #  1     ecut=    55.00 Ry     beta= 0.70
     Davidson diagonalization with overlap
     ethr =  1.00E-06,  avg # of iterations =  2.0

     Threshold (ethr) on eigenvalues was too large:
     Diagonalizing with lowered threshold

     Davidson diagonalization with overlap
     ethr =  3.05E-10,  avg # of iterations =  3.1

     total cpu time spent up to now is     4941.8 secs

     total energy              =    -447.49694822 Ry
     Harris-Foulkes estimate   =    -447.49401174 Ry
     estimated scf accuracy    <       0.00000013 Ry

     iteration #  2     ecut=    55.00 Ry     beta= 0.70
     Davidson diagonalization with overlap
     ethr =  2.50E-10,  avg # of iterations =  3.0

     total cpu time spent up to now is     5016.2 secs

     total energy              =    -447.49694832 Ry
     Harris-Foulkes estimate   =    -447.49694839 Ry
     estimated scf accuracy    <       0.00000015 Ry

     iteration #  3     ecut=    55.00 Ry     beta= 0.70
     Davidson diagonalization with overlap
     ethr =  2.50E-10,  avg # of iterations =  2.0

     total cpu time spent up to now is     5074.9 secs

     total energy              =    -447.49694833 Ry
     Harris-Foulkes estimate   =    -447.49694834 Ry
     estimated scf accuracy    <       0.00000001 Ry

     iteration #  4     ecut=    55.00 Ry     beta= 0.70
     Davidson diagonalization with overlap
     ethr =  2.02E-11,  avg # of iterations =  2.0

     total cpu time spent up to now is     5131.1 secs

     total energy              =    -447.49694833 Ry
     Harris-Foulkes estimate   =    -447.49694834 Ry
     estimated scf accuracy    <          2.4E-09 Ry

     iteration #  5     ecut=    55.00 Ry     beta= 0.70
     Davidson diagonalization with overlap
     ethr =  4.68E-12,  avg # of iterations =  2.0

     total cpu time spent up to now is     5190.5 secs

     total energy              =    -447.49694834 Ry
     Harris-Foulkes estimate   =    -447.49694834 Ry
     estimated scf accuracy    <          1.3E-11 Ry

     iteration #  6     ecut=    55.00 Ry     beta= 0.70
     Davidson diagonalization with overlap
     ethr =  1.00E-13,  avg # of iterations =  3.0

     total cpu time spent up to now is     5259.4 secs

     total energy              =    -447.49694834 Ry
     Harris-Foulkes estimate   =    -447.49694834 Ry
     estimated scf accuracy    <          1.3E-11 Ry

     iteration #  7     ecut=    55.00 Ry     beta= 0.70
     Davidson diagonalization with overlap
     ethr =  1.00E-13,  avg # of iterations =  1.0

     total cpu time spent up to now is     5306.7 secs

     total energy              =    -447.49694834 Ry
     Harris-Foulkes estimate   =    -447.49694834 Ry
     estimated scf accuracy    <          1.5E-12 Ry

     iteration #  8     ecut=    55.00 Ry     beta= 0.70
     Davidson diagonalization with overlap
     ethr =  1.00E-13,  avg # of iterations =  1.0

     total cpu time spent up to now is     5354.1 secs

     End of self-consistent calculation

     Number of k-points >= 100: set verbosity='high' to print the bands.

     highest occupied level (ev):    10.1888

!    total energy              =    -447.49694834 Ry
     Harris-Foulkes estimate   =    -447.49694834 Ry
     estimated scf accuracy    <          2.8E-14 Ry

     The total energy is the sum of the following terms:

     one-electron contribution =    -111.71986230 Ry
     hartree contribution      =      97.19257361 Ry
     xc contribution           =    -122.42489766 Ry
     ewald contribution        =    -310.54476199 Ry

     convergence has been achieved in   8 iterations

     Forces acting on atoms (cartesian axes, Ry/au):

     atom    1 type  1   force =    -0.00003922   -0.00003922    0.00000000
     atom    2 type  1   force =    -0.00005708   -0.00005708    0.00000000
     atom    3 type  2   force =     0.00011890    0.00004539    0.00000000
     atom    4 type  2   force =     0.00004539    0.00011890    0.00000000
     atom    5 type  2   force =     0.00000230    0.00000230    0.00000000
     atom    6 type  2   force =    -0.00007029   -0.00007029    0.00000000

     Total force =     0.000228     Total SCF correction =     0.000000


     Computing stress (Cartesian axis) and pressure

          total   stress  (Ry/bohr**3)                   (kbar)     P=   -0.02
  -0.00000006   0.00000028   0.00000000         -0.01      0.04      0.00
   0.00000028  -0.00000006   0.00000000          0.04     -0.01      0.00
   0.00000000   0.00000000  -0.00000020          0.00      0.00     -0.03


     number of scf cycles    =   7
     number of bfgs steps    =   6

     enthalpy old            =    -447.4969481685 Ry
     enthalpy new            =    -447.4969483351 Ry

     CASE: enthalpy_new < enthalpy_old

     new trust radius        =       0.0002350017 bohr
     new conv_thr            =            1.0E-12 Ry

     new unit-cell volume =    470.62246 a.u.^3 (    69.73905 Ang^3 )
     density =      7.17694 g/cm^3

CELL_PARAMETERS (alat=  9.11000000)
   0.971427156   0.000000000   0.000000000
   0.000000000   0.971427156   0.000000000
   0.000000000   0.000000000   0.659624892

ATOMIC_POSITIONS (crystal)
Sn      -0.000287241  -0.000287241   0.000000000
Sn       0.499724772   0.499724772   0.500000000
O        0.804869615   0.194295018   0.500000000
O        0.194295018   0.804869615   0.500000000
O        0.304963999   0.304963999   0.000000000
O        0.694433837   0.694433837   0.000000000



     Writing output data file SnO2.save
     NEW-OLD atomic charge density approx. for the potential

     Check: negative/imaginary core charge=   -0.000052    0.000000
     extrapolated charge   52.00038, renormalised to   52.00000

     total cpu time spent up to now is     5378.3 secs

     Self-consistent Calculation

     iteration #  1     ecut=    55.00 Ry     beta= 0.70
     Davidson diagonalization with overlap
     ethr =  1.00E-06,  avg # of iterations =  1.2

     Threshold (ethr) on eigenvalues was too large:
     Diagonalizing with lowered threshold

     Davidson diagonalization with overlap
     ethr =  4.95E-10,  avg # of iterations =  3.1

     total cpu time spent up to now is     5506.6 secs

     total energy              =    -447.49694839 Ry
     Harris-Foulkes estimate   =    -447.49618547 Ry
     estimated scf accuracy    <       0.00000002 Ry

     iteration #  2     ecut=    55.00 Ry     beta= 0.70
     Davidson diagonalization with overlap
     ethr =  4.18E-11,  avg # of iterations =  3.0

     total cpu time spent up to now is     5575.5 secs

     total energy              =    -447.49694840 Ry
     Harris-Foulkes estimate   =    -447.49694840 Ry
     estimated scf accuracy    <          9.9E-09 Ry

     iteration #  3     ecut=    55.00 Ry     beta= 0.70
     Davidson diagonalization with overlap
     ethr =  1.90E-11,  avg # of iterations =  2.0

     total cpu time spent up to now is     5635.0 secs

     total energy              =    -447.49694840 Ry
     Harris-Foulkes estimate   =    -447.49694840 Ry
     estimated scf accuracy    <          4.4E-10 Ry

     iteration #  4     ecut=    55.00 Ry     beta= 0.70
     Davidson diagonalization with overlap
     ethr =  8.55E-13,  avg # of iterations =  2.9

     total cpu time spent up to now is     5703.0 secs

     total energy              =    -447.49694840 Ry
     Harris-Foulkes estimate   =    -447.49694840 Ry
     estimated scf accuracy    <          1.2E-10 Ry

     iteration #  5     ecut=    55.00 Ry     beta= 0.70
     Davidson diagonalization with overlap
     ethr =  2.36E-13,  avg # of iterations =  3.1

     total cpu time spent up to now is     5766.2 secs

     total energy              =    -447.49694840 Ry
     Harris-Foulkes estimate   =    -447.49694840 Ry
     estimated scf accuracy    <          4.1E-11 Ry

     iteration #  6     ecut=    55.00 Ry     beta= 0.70
     Davidson diagonalization with overlap
     ethr =  1.00E-13,  avg # of iterations =  2.9

     total cpu time spent up to now is     5823.9 secs

     total energy              =    -447.49694840 Ry
     Harris-Foulkes estimate   =    -447.49694840 Ry
     estimated scf accuracy    <          1.7E-12 Ry

     iteration #  7     ecut=    55.00 Ry     beta= 0.70
     Davidson diagonalization with overlap
     ethr =  1.00E-13,  avg # of iterations =  1.0

     total cpu time spent up to now is     5870.6 secs

     End of self-consistent calculation

     Number of k-points >= 100: set verbosity='high' to print the bands.

     highest occupied level (ev):    10.1887

!    total energy              =    -447.49694840 Ry
     Harris-Foulkes estimate   =    -447.49694840 Ry
     estimated scf accuracy    <          2.5E-13 Ry

     The total energy is the sum of the following terms:

     one-electron contribution =    -111.72272583 Ry
     hartree contribution      =      97.19371415 Ry
     xc contribution           =    -122.42488615 Ry
     ewald contribution        =    -310.54305056 Ry

     convergence has been achieved in   7 iterations

     Forces acting on atoms (cartesian axes, Ry/au):

     atom    1 type  1   force =    -0.00003782   -0.00003782    0.00000000
     atom    2 type  1   force =    -0.00004695   -0.00004695    0.00000000
     atom    3 type  2   force =     0.00010847    0.00002544    0.00000000
     atom    4 type  2   force =     0.00002544    0.00010847    0.00000000
     atom    5 type  2   force =     0.00001657    0.00001657    0.00000000
     atom    6 type  2   force =    -0.00006571   -0.00006571    0.00000000

     Total force =     0.000203     Total SCF correction =     0.000002


     Computing stress (Cartesian axis) and pressure

          total   stress  (Ry/bohr**3)                   (kbar)     P=   -0.03
  -0.00000049   0.00000028   0.00000000         -0.07      0.04      0.00
   0.00000028  -0.00000049   0.00000000          0.04     -0.07      0.00
   0.00000000   0.00000000   0.00000041          0.00      0.00      0.06


     number of scf cycles    =   8
     number of bfgs steps    =   7

     enthalpy old            =    -447.4969483351 Ry
     enthalpy new            =    -447.4969483988 Ry

     CASE: enthalpy_new < enthalpy_old

     new trust radius        =       0.0002585059 bohr
     new conv_thr            =            1.0E-12 Ry

     new unit-cell volume =    470.62345 a.u.^3 (    69.73920 Ang^3 )
     density =      7.17692 g/cm^3

CELL_PARAMETERS (alat=  9.11000000)
   0.971432191   0.000000000   0.000000000
   0.000000000   0.971432191   0.000000000
   0.000000000   0.000000000   0.659619445

ATOMIC_POSITIONS (crystal)
Sn      -0.000298090  -0.000298090   0.000000000
Sn       0.499710677   0.499710677   0.500000000
O        0.804890862   0.194315064   0.500000000
O        0.194315064   0.804890862   0.500000000
O        0.304956369   0.304956369   0.000000000
O        0.694425118   0.694425118   0.000000000



     Writing output data file SnO2.save
     NEW-OLD atomic charge density approx. for the potential

     Check: negative/imaginary core charge=   -0.000052    0.000000
     extrapolated charge   52.00011, renormalised to   52.00000

     total cpu time spent up to now is     5894.6 secs

     Self-consistent Calculation

     iteration #  1     ecut=    55.00 Ry     beta= 0.70
     Davidson diagonalization with overlap
     ethr =  1.00E-06,  avg # of iterations =  1.7

     Threshold (ethr) on eigenvalues was too large:
     Diagonalizing with lowered threshold

     Davidson diagonalization with overlap
     ethr =  4.49E-10,  avg # of iterations =  3.1

     total cpu time spent up to now is     6022.2 secs

     total energy              =    -447.49694846 Ry
     Harris-Foulkes estimate   =    -447.49672572 Ry
     estimated scf accuracy    <       0.00000002 Ry

     iteration #  2     ecut=    55.00 Ry     beta= 0.70
     Davidson diagonalization with overlap
     ethr =  3.99E-11,  avg # of iterations =  2.0

     total cpu time spent up to now is     6081.5 secs

     total energy              =    -447.49694846 Ry
     Harris-Foulkes estimate   =    -447.49694846 Ry
     estimated scf accuracy    <          2.2E-09 Ry

     iteration #  3     ecut=    55.00 Ry     beta= 0.70
     Davidson diagonalization with overlap
     ethr =  4.21E-12,  avg # of iterations =  2.1

     total cpu time spent up to now is     6146.0 secs

     total energy              =    -447.49694846 Ry
     Harris-Foulkes estimate   =    -447.49694846 Ry
     estimated scf accuracy    <          3.7E-10 Ry

     iteration #  4     ecut=    55.00 Ry     beta= 0.70
     Davidson diagonalization with overlap
     ethr =  7.07E-13,  avg # of iterations =  3.0

     total cpu time spent up to now is     6211.7 secs

     total energy              =    -447.49694846 Ry
     Harris-Foulkes estimate   =    -447.49694846 Ry
     estimated scf accuracy    <          8.3E-11 Ry

     iteration #  5     ecut=    55.00 Ry     beta= 0.70
     Davidson diagonalization with overlap
     ethr =  1.60E-13,  avg # of iterations =  3.2

     total cpu time spent up to now is     6274.7 secs

     total energy              =    -447.49694846 Ry
     Harris-Foulkes estimate   =    -447.49694846 Ry
     estimated scf accuracy    <          2.0E-11 Ry

     iteration #  6     ecut=    55.00 Ry     beta= 0.70
     Davidson diagonalization with overlap
     ethr =  1.00E-13,  avg # of iterations =  2.1

     total cpu time spent up to now is     6327.2 secs

     End of self-consistent calculation

     Number of k-points >= 100: set verbosity='high' to print the bands.

     highest occupied level (ev):    10.1887

!    total energy              =    -447.49694846 Ry
     Harris-Foulkes estimate   =    -447.49694846 Ry
     estimated scf accuracy    <          4.4E-13 Ry

     The total energy is the sum of the following terms:

     one-electron contribution =    -111.72392552 Ry
     hartree contribution      =      97.19423017 Ry
     xc contribution           =    -122.42488733 Ry
     ewald contribution        =    -310.54236578 Ry

     convergence has been achieved in   6 iterations

     Forces acting on atoms (cartesian axes, Ry/au):

     atom    1 type  1   force =    -0.00003131   -0.00003131    0.00000000
     atom    2 type  1   force =    -0.00003664   -0.00003664    0.00000000
     atom    3 type  2   force =     0.00008656    0.00001411    0.00000000
     atom    4 type  2   force =     0.00001411    0.00008656    0.00000000
     atom    5 type  2   force =     0.00001982    0.00001982    0.00000000
     atom    6 type  2   force =    -0.00005254   -0.00005254    0.00000000

     Total force =     0.000162     Total SCF correction =     0.000001


     Computing stress (Cartesian axis) and pressure

          total   stress  (Ry/bohr**3)                   (kbar)     P=   -0.03
  -0.00000064   0.00000028   0.00000000         -0.09      0.04      0.00
   0.00000028  -0.00000064   0.00000000          0.04     -0.09      0.00
   0.00000000  -0.00000000   0.00000068          0.00     -0.00      0.10


     number of scf cycles    =   9
     number of bfgs steps    =   8

     enthalpy old            =    -447.4969483988 Ry
     enthalpy new            =    -447.4969484613 Ry

     CASE: enthalpy_new < enthalpy_old

     new trust radius        =       0.0003877608 bohr
     new conv_thr            =            1.0E-12 Ry

     new unit-cell volume =    470.62258 a.u.^3 (    69.73907 Ang^3 )
     density =      7.17694 g/cm^3

CELL_PARAMETERS (alat=  9.11000000)
   0.971429693   0.000000000   0.000000000
   0.000000000   0.971429693   0.000000000
   0.000000000   0.000000000   0.659621624

ATOMIC_POSITIONS (crystal)
Sn      -0.000314647  -0.000314647   0.000000000
Sn       0.499689364   0.499689364   0.500000000
O        0.804924633   0.194342981   0.500000000
O        0.194342981   0.804924633   0.500000000
O        0.304947346   0.304947346   0.000000000
O        0.694410323   0.694410323   0.000000000



     Writing output data file SnO2.save
     NEW-OLD atomic charge density approx. for the potential

     Check: negative/imaginary core charge=   -0.000052    0.000000
     extrapolated charge   51.99990, renormalised to   52.00000

     total cpu time spent up to now is     6351.1 secs

     Self-consistent Calculation

     iteration #  1     ecut=    55.00 Ry     beta= 0.70
     Davidson diagonalization with overlap
     ethr =  1.00E-06,  avg # of iterations =  2.0

     Threshold (ethr) on eigenvalues was too large:
     Diagonalizing with lowered threshold

     Davidson diagonalization with overlap
     ethr =  4.15E-11,  avg # of iterations =  4.4

     total cpu time spent up to now is     6494.6 secs

     total energy              =    -447.49694852 Ry
     Harris-Foulkes estimate   =    -447.49714284 Ry
     estimated scf accuracy    <       0.00000005 Ry

     iteration #  2     ecut=    55.00 Ry     beta= 0.70
     Davidson diagonalization with overlap
     ethr =  8.93E-11,  avg # of iterations =  2.0

     total cpu time spent up to now is     6553.0 secs

     total energy              =    -447.49694853 Ry
     Harris-Foulkes estimate   =    -447.49694853 Ry
     estimated scf accuracy    <          4.2E-09 Ry

     iteration #  3     ecut=    55.00 Ry     beta= 0.70
     Davidson diagonalization with overlap
     ethr =  8.05E-12,  avg # of iterations =  2.3

     total cpu time spent up to now is     6618.6 secs

     total energy              =    -447.49694853 Ry
     Harris-Foulkes estimate   =    -447.49694853 Ry
     estimated scf accuracy    <          9.4E-10 Ry

     iteration #  4     ecut=    55.00 Ry     beta= 0.70
     Davidson diagonalization with overlap
     ethr =  1.80E-12,  avg # of iterations =  3.1

     total cpu time spent up to now is     6685.6 secs

     total energy              =    -447.49694853 Ry
     Harris-Foulkes estimate   =    -447.49694853 Ry
     estimated scf accuracy    <          2.7E-10 Ry

     iteration #  5     ecut=    55.00 Ry     beta= 0.70
     Davidson diagonalization with overlap
     ethr =  5.10E-13,  avg # of iterations =  3.2

     total cpu time spent up to now is     6748.4 secs

     total energy              =    -447.49694853 Ry
     Harris-Foulkes estimate   =    -447.49694853 Ry
     estimated scf accuracy    <          3.8E-11 Ry

     iteration #  6     ecut=    55.00 Ry     beta= 0.70
     Davidson diagonalization with overlap
     ethr =  1.00E-13,  avg # of iterations =  2.6

     total cpu time spent up to now is     6806.3 secs

     total energy              =    -447.49694853 Ry
     Harris-Foulkes estimate   =    -447.49694853 Ry
     estimated scf accuracy    <          1.2E-12 Ry

     iteration #  7     ecut=    55.00 Ry     beta= 0.70
     Davidson diagonalization with overlap
     ethr =  1.00E-13,  avg # of iterations =  1.0

     total cpu time spent up to now is     6853.7 secs

     End of self-consistent calculation

     Number of k-points >= 100: set verbosity='high' to print the bands.

     highest occupied level (ev):    10.1887

!    total energy              =    -447.49694853 Ry
     Harris-Foulkes estimate   =    -447.49694853 Ry
     estimated scf accuracy    <          9.9E-14 Ry

     The total energy is the sum of the following terms:

     one-electron contribution =    -111.72388266 Ry
     hartree contribution      =      97.19429273 Ry
     xc contribution           =    -122.42490233 Ry
     ewald contribution        =    -310.54245627 Ry

     convergence has been achieved in   7 iterations

     Forces acting on atoms (cartesian axes, Ry/au):

     atom    1 type  1   force =    -0.00001930   -0.00001930    0.00000000
     atom    2 type  1   force =    -0.00001871   -0.00001871    0.00000000
     atom    3 type  2   force =     0.00004834    0.00000297    0.00000000
     atom    4 type  2   force =     0.00000297    0.00004834    0.00000000
     atom    5 type  2   force =     0.00001622    0.00001622    0.00000000
     atom    6 type  2   force =    -0.00002952   -0.00002952    0.00000000

     Total force =     0.000092     Total SCF correction =     0.000001


     Computing stress (Cartesian axis) and pressure

          total   stress  (Ry/bohr**3)                   (kbar)     P=   -0.02
  -0.00000055   0.00000028   0.00000000         -0.08      0.04      0.00
   0.00000028  -0.00000055   0.00000000          0.04     -0.08      0.00
   0.00000000   0.00000000   0.00000072          0.00      0.00      0.11


     number of scf cycles    =  10
     number of bfgs steps    =   9

     enthalpy old            =    -447.4969484613 Ry
     enthalpy new            =    -447.4969485339 Ry

     CASE: enthalpy_new < enthalpy_old

     new trust radius        =       0.0004263047 bohr
     new conv_thr            =            1.0E-12 Ry

     new unit-cell volume =    470.62007 a.u.^3 (    69.73870 Ang^3 )
     density =      7.17698 g/cm^3

CELL_PARAMETERS (alat=  9.11000000)
   0.971417433   0.000000000   0.000000000
   0.000000000   0.971417433   0.000000000
   0.000000000   0.000000000   0.659634755

ATOMIC_POSITIONS (crystal)
Sn      -0.000333229  -0.000333229   0.000000000
Sn       0.499666116   0.499666116   0.500000000
O        0.804963436   0.194371526   0.500000000
O        0.194371526   0.804963436   0.500000000
O        0.304939711   0.304939711   0.000000000
O        0.694392441   0.694392441   0.000000000



     Writing output data file SnO2.save
     NEW-OLD atomic charge density approx. for the potential

     Check: negative/imaginary core charge=   -0.000052    0.000000
     extrapolated charge   51.99972, renormalised to   52.00000

     total cpu time spent up to now is     6877.9 secs

     Self-consistent Calculation

     iteration #  1     ecut=    55.00 Ry     beta= 0.70
     Davidson diagonalization with overlap
     ethr =  1.00E-06,  avg # of iterations =  2.0

     Threshold (ethr) on eigenvalues was too large:
     Diagonalizing with lowered threshold

     Davidson diagonalization with overlap
     ethr =  5.17E-11,  avg # of iterations =  4.3

     total cpu time spent up to now is     7022.4 secs

     total energy              =    -447.49694856 Ry
     Harris-Foulkes estimate   =    -447.49751241 Ry
     estimated scf accuracy    <       0.00000006 Ry

     iteration #  2     ecut=    55.00 Ry     beta= 0.70
     Davidson diagonalization with overlap
     ethr =  1.14E-10,  avg # of iterations =  2.0

     total cpu time spent up to now is     7086.1 secs

     total energy              =    -447.49694857 Ry
     Harris-Foulkes estimate   =    -447.49694857 Ry
     estimated scf accuracy    <          9.2E-09 Ry

     iteration #  3     ecut=    55.00 Ry     beta= 0.70
     Davidson diagonalization with overlap
     ethr =  1.77E-11,  avg # of iterations =  2.1

     total cpu time spent up to now is     7150.1 secs

     total energy              =    -447.49694857 Ry
     Harris-Foulkes estimate   =    -447.49694857 Ry
     estimated scf accuracy    <          1.4E-09 Ry

     iteration #  4     ecut=    55.00 Ry     beta= 0.70
     Davidson diagonalization with overlap
     ethr =  2.66E-12,  avg # of iterations =  3.0

     total cpu time spent up to now is     7215.3 secs

     total energy              =    -447.49694857 Ry
     Harris-Foulkes estimate   =    -447.49694857 Ry
     estimated scf accuracy    <          3.4E-10 Ry

     iteration #  5     ecut=    55.00 Ry     beta= 0.70
     Davidson diagonalization with overlap
     ethr =  6.47E-13,  avg # of iterations =  3.2

     total cpu time spent up to now is     7277.7 secs

     total energy              =    -447.49694857 Ry
     Harris-Foulkes estimate   =    -447.49694857 Ry
     estimated scf accuracy    <          7.9E-11 Ry

     iteration #  6     ecut=    55.00 Ry     beta= 0.70
     Davidson diagonalization with overlap
     ethr =  1.52E-13,  avg # of iterations =  3.0

     total cpu time spent up to now is     7337.3 secs

     total energy              =    -447.49694857 Ry
     Harris-Foulkes estimate   =    -447.49694857 Ry
     estimated scf accuracy    <          2.4E-12 Ry

     iteration #  7     ecut=    55.00 Ry     beta= 0.70
     Davidson diagonalization with overlap
     ethr =  1.00E-13,  avg # of iterations =  1.0

     total cpu time spent up to now is     7384.0 secs

     End of self-consistent calculation

     Number of k-points >= 100: set verbosity='high' to print the bands.

     highest occupied level (ev):    10.1887

!    total energy              =    -447.49694857 Ry
     Harris-Foulkes estimate   =    -447.49694857 Ry
     estimated scf accuracy    <          3.0E-13 Ry

     The total energy is the sum of the following terms:

     one-electron contribution =    -111.72221521 Ry
     hartree contribution      =      97.19369721 Ry
     xc contribution           =    -122.42491888 Ry
     ewald contribution        =    -310.54351168 Ry

     convergence has been achieved in   7 iterations

     Forces acting on atoms (cartesian axes, Ry/au):

     atom    1 type  1   force =    -0.00000311   -0.00000311    0.00000000
     atom    2 type  1   force =     0.00000069    0.00000069    0.00000000
     atom    3 type  2   force =     0.00000191   -0.00000393    0.00000000
     atom    4 type  2   force =    -0.00000393    0.00000191    0.00000000
     atom    5 type  2   force =     0.00000541    0.00000541    0.00000000
     atom    6 type  2   force =    -0.00000097   -0.00000097    0.00000000

     Total force =     0.000011     Total SCF correction =     0.000003
     SCF correction compared to forces is large: reduce conv_thr to get better values


     Computing stress (Cartesian axis) and pressure

          total   stress  (Ry/bohr**3)                   (kbar)     P=   -0.01
  -0.00000022   0.00000027   0.00000000         -0.03      0.04      0.00
   0.00000027  -0.00000022   0.00000000          0.04     -0.03      0.00
   0.00000000   0.00000000   0.00000032          0.00      0.00      0.05


     number of scf cycles    =  11
     number of bfgs steps    =  10

     enthalpy old            =    -447.4969485339 Ry
     enthalpy new            =    -447.4969485709 Ry

     CASE: enthalpy_new < enthalpy_old

     small trust_radius: resetting bfgs history

     new trust radius        =       0.0000342983 bohr
     new conv_thr            =            1.0E-12 Ry

     new unit-cell volume =    470.61872 a.u.^3 (    69.73850 Ang^3 )
     density =      7.17700 g/cm^3

CELL_PARAMETERS (alat=  9.11000000)
   0.971412196   0.000000000   0.000000000
   0.000000000   0.971412196   0.000000000
   0.000000000   0.000000000   0.659639969

ATOMIC_POSITIONS (crystal)
Sn      -0.000333580  -0.000333580   0.000000000
Sn       0.499666194   0.499666194   0.500000000
O        0.804963652   0.194371081   0.500000000
O        0.194371081   0.804963652   0.500000000
O        0.304940323   0.304940323   0.000000000
O        0.694392331   0.694392331   0.000000000



     Writing output data file SnO2.save
     NEW-OLD atomic charge density approx. for the potential

     Check: negative/imaginary core charge=   -0.000052    0.000000
     extrapolated charge   51.99985, renormalised to   52.00000

     total cpu time spent up to now is     7407.7 secs

     Self-consistent Calculation

     iteration #  1     ecut=    55.00 Ry     beta= 0.70
     Davidson diagonalization with overlap
     ethr =  1.00E-06,  avg # of iterations =  1.0

     Threshold (ethr) on eigenvalues was too large:
     Diagonalizing with lowered threshold

     Davidson diagonalization with overlap
     ethr =  1.69E-12,  avg # of iterations =  3.5

     total cpu time spent up to now is     7536.1 secs

     total energy              =    -447.49694857 Ry
     Harris-Foulkes estimate   =    -447.49725255 Ry
     estimated scf accuracy    <          6.8E-10 Ry

     iteration #  2     ecut=    55.00 Ry     beta= 0.70
     Davidson diagonalization with overlap
     ethr =  1.31E-12,  avg # of iterations =  4.0

     total cpu time spent up to now is     7617.1 secs

     total energy              =    -447.49694857 Ry
     Harris-Foulkes estimate   =    -447.49694857 Ry
     estimated scf accuracy    <          1.5E-09 Ry

     iteration #  3     ecut=    55.00 Ry     beta= 0.70
     Davidson diagonalization with overlap
     ethr =  1.31E-12,  avg # of iterations =  2.0

     total cpu time spent up to now is     7675.7 secs

     total energy              =    -447.49694857 Ry
     Harris-Foulkes estimate   =    -447.49694857 Ry
     estimated scf accuracy    <          2.0E-10 Ry

     iteration #  4     ecut=    55.00 Ry     beta= 0.70
     Davidson diagonalization with overlap
     ethr =  3.87E-13,  avg # of iterations =  1.0

     total cpu time spent up to now is     7722.8 secs

     total energy              =    -447.49694857 Ry
     Harris-Foulkes estimate   =    -447.49694857 Ry
     estimated scf accuracy    <          8.6E-11 Ry

     iteration #  5     ecut=    55.00 Ry     beta= 0.70
     Davidson diagonalization with overlap
     ethr =  1.66E-13,  avg # of iterations =  2.0

     total cpu time spent up to now is     7788.3 secs

     End of self-consistent calculation

     Number of k-points >= 100: set verbosity='high' to print the bands.

     highest occupied level (ev):    10.1888

!    total energy              =    -447.49694857 Ry
     Harris-Foulkes estimate   =    -447.49694857 Ry
     estimated scf accuracy    <          2.9E-13 Ry

     The total energy is the sum of the following terms:

     one-electron contribution =    -111.72109018 Ry
     hartree contribution      =      97.19324720 Ry
     xc contribution           =    -122.42492438 Ry
     ewald contribution        =    -310.54418121 Ry

     convergence has been achieved in   5 iterations

     Forces acting on atoms (cartesian axes, Ry/au):

     atom    1 type  1   force =     0.00000005    0.00000005    0.00000000
     atom    2 type  1   force =     0.00000042    0.00000042    0.00000000
     atom    3 type  2   force =     0.00000297   -0.00000463    0.00000000
     atom    4 type  2   force =    -0.00000463    0.00000297    0.00000000
     atom    5 type  2   force =     0.00000442    0.00000442    0.00000000
     atom    6 type  2   force =    -0.00000323   -0.00000323    0.00000000

     Total force =     0.000011     Total SCF correction =     0.000001


     Computing stress (Cartesian axis) and pressure

          total   stress  (Ry/bohr**3)                   (kbar)     P=   -0.00
  -0.00000006   0.00000028   0.00000000         -0.01      0.04      0.00
   0.00000028  -0.00000006   0.00000000          0.04     -0.01      0.00
   0.00000000   0.00000000   0.00000010          0.00      0.00      0.01


     number of scf cycles    =  12
     number of bfgs steps    =  11

     enthalpy old            =    -447.4969485709 Ry
     enthalpy new            =    -447.4969485725 Ry

     CASE: enthalpy_new < enthalpy_old

     Message from routine bfgs:
     history already reset at previous step: stopping
     small trust_radius: resetting bfgs history

     new trust radius        =       0.0000109765 bohr
     new conv_thr            =            1.6E-13 Ry

     new unit-cell volume =    470.61859 a.u.^3 (    69.73848 Ang^3 )
     density =      7.17700 g/cm^3

CELL_PARAMETERS (alat=  9.11000000)
   0.971410832   0.000000000   0.000000000
   0.000000000   0.971410832   0.000000000
   0.000000000   0.000000000   0.659641638

ATOMIC_POSITIONS (crystal)
Sn      -0.000333574  -0.000333574   0.000000000
Sn       0.499666241   0.499666241   0.500000000
O        0.804963987   0.194370558   0.500000000
O        0.194370558   0.804963987   0.500000000
O        0.304940823   0.304940823   0.000000000
O        0.694391966   0.694391966   0.000000000



     Writing output data file SnO2.save
     NEW-OLD atomic charge density approx. for the potential

     Check: negative/imaginary core charge=   -0.000052    0.000000
     extrapolated charge   51.99999, renormalised to   52.00000

     total cpu time spent up to now is     7812.5 secs

     Self-consistent Calculation

     iteration #  1     ecut=    55.00 Ry     beta= 0.70
     Davidson diagonalization with overlap
     ethr =  1.00E-06,  avg # of iterations =  1.0

     Threshold (ethr) on eigenvalues was too large:
     Diagonalizing with lowered threshold

     Davidson diagonalization with overlap
     ethr =  8.21E-14,  avg # of iterations =  4.0

     total cpu time spent up to now is     7948.2 secs

     total energy              =    -447.49694857 Ry
     Harris-Foulkes estimate   =    -447.49697789 Ry
     estimated scf accuracy    <          2.8E-11 Ry

     iteration #  2     ecut=    55.00 Ry     beta= 0.70
     Davidson diagonalization with overlap
     ethr =  1.00E-13,  avg # of iterations =  2.0

     total cpu time spent up to now is     8014.5 secs

     total energy              =    -447.49694857 Ry
     Harris-Foulkes estimate   =    -447.49694857 Ry
     estimated scf accuracy    <          9.0E-12 Ry

     iteration #  3     ecut=    55.00 Ry     beta= 0.70
     Davidson diagonalization with overlap
     ethr =  1.00E-13,  avg # of iterations =  1.0

     total cpu time spent up to now is     8061.6 secs

     total energy              =    -447.49694857 Ry
     Harris-Foulkes estimate   =    -447.49694857 Ry
     estimated scf accuracy    <          3.2E-13 Ry

     iteration #  4     ecut=    55.00 Ry     beta= 0.70
     Davidson diagonalization with overlap
     ethr =  1.00E-13,  avg # of iterations =  1.0

     total cpu time spent up to now is     8108.7 secs

     End of self-consistent calculation

     Number of k-points >= 100: set verbosity='high' to print the bands.

     highest occupied level (ev):    10.1888

!    total energy              =    -447.49694857 Ry
     Harris-Foulkes estimate   =    -447.49694857 Ry
     estimated scf accuracy    <          3.0E-14 Ry

     The total energy is the sum of the following terms:

     one-electron contribution =    -111.72090573 Ry
     hartree contribution      =      97.19316907 Ry
     xc contribution           =    -122.42492309 Ry
     ewald contribution        =    -310.54428882 Ry

     convergence has been achieved in   4 iterations

     Forces acting on atoms (cartesian axes, Ry/au):

     atom    1 type  1   force =     0.00000039    0.00000039    0.00000000
     atom    2 type  1   force =     0.00000056    0.00000056    0.00000000
     atom    3 type  2   force =     0.00000140   -0.00000289    0.00000000
     atom    4 type  2   force =    -0.00000289    0.00000140    0.00000000
     atom    5 type  2   force =     0.00000244    0.00000244    0.00000000
     atom    6 type  2   force =    -0.00000190   -0.00000190    0.00000000

     Total force =     0.000006     Total SCF correction =     0.000001
     SCF correction compared to forces is large: reduce conv_thr to get better values


     Computing stress (Cartesian axis) and pressure

          total   stress  (Ry/bohr**3)                   (kbar)     P=   -0.00
  -0.00000003   0.00000028   0.00000000         -0.00      0.04      0.00
   0.00000028  -0.00000003   0.00000000          0.04     -0.00      0.00
   0.00000000   0.00000000   0.00000003          0.00      0.00      0.01


     bfgs converged in  13 scf cycles and  12 bfgs steps
     (criteria: energy <  1.0E-10 Ry, force <  1.0E-09Ry/Bohr, cell <  5.0E-01kbar)

     End of BFGS Geometry Optimization

     Final enthalpy =    -447.4969485727 Ry
Begin final coordinates
     new unit-cell volume =    470.61859 a.u.^3 (    69.73848 Ang^3 )
     density =      7.17700 g/cm^3

CELL_PARAMETERS (alat=  9.11000000)
   0.971410832   0.000000000   0.000000000
   0.000000000   0.971410832   0.000000000
   0.000000000   0.000000000   0.659641638

ATOMIC_POSITIONS (crystal)
Sn      -0.000333574  -0.000333574   0.000000000
Sn       0.499666241   0.499666241   0.500000000
O        0.804963987   0.194370558   0.500000000
O        0.194370558   0.804963987   0.500000000
O        0.304940823   0.304940823   0.000000000
O        0.694391966   0.694391966   0.000000000
End final coordinates



     A final scf calculation at the relaxed structure.
     The G-vectors are recalculated for the final unit cell
     Results may differ from those at the preceding step.
 
     Parallelization info
     --------------------
     sticks:   dense  smooth     PW     G-vecs:    dense   smooth      PW
     Min         684     684    210                12974    12974    2141
     Max         685     685    211                12975    12975    2142
     Sum        1369    1369    421                25949    25949    4283
 


     bravais-lattice index     =            6
     lattice parameter (alat)  =       9.1100  a.u.
     unit-cell volume          =     470.6186 (a.u.)^3
     number of atoms/cell      =            6
     number of atomic types    =            2
     number of electrons       =        52.00
     number of Kohn-Sham states=           26
     kinetic-energy cutoff     =      55.0000  Ry
     charge density cutoff     =     220.0000  Ry
     convergence threshold     =      1.6E-13
     mixing beta               =       0.7000
     number of iterations used =            8  plain     mixing
     Exchange-correlation      = PBE ( 1  4  3  4 0 0)

     celldm(1)=   9.110000  celldm(2)=   0.000000  celldm(3)=   0.670000
     celldm(4)=   0.000000  celldm(5)=   0.000000  celldm(6)=   0.000000

     crystal axes: (cart. coord. in units of alat)
               a(1) = (   0.971411   0.000000   0.000000 )  
               a(2) = (   0.000000   0.971411   0.000000 )  
               a(3) = (   0.000000   0.000000   0.659642 )  

     reciprocal axes: (cart. coord. in units 2 pi/alat)
               b(1) = (  1.029431  0.000000  0.000000 )  
               b(2) = (  0.000000  1.029431  0.000000 )  
               b(3) = (  0.000000  0.000000  1.515975 )  


     PseudoPot. # 1 for Sn read from file:
     ../../Pseudo_potentials/Sn_PBE.upf
     MD5 check sum: 78e6386ae56e929f0568ae8bf606a80c
     Pseudo is Norm-conserving + core correction, Zval = 14.0
     Generated using ONCVPSP code by D. R. Hamann
     Using radial grid of 1628 points,  6 beta functions with: 
                l(1) =   0
                l(2) =   0
                l(3) =   1
                l(4) =   1
                l(5) =   2
                l(6) =   2

     PseudoPot. # 2 for O  read from file:
     ../../Pseudo_potentials/O_PBE.upf
     MD5 check sum: 3e3f909f7470e8921608ab6b1f57bbae
     Pseudo is Norm-conserving + core correction, Zval =  6.0
     Generated using ONCVPSP code by D. R. Hamann
     Using radial grid of  936 points,  5 beta functions with: 
                l(1) =   0
                l(2) =   0
                l(3) =   1
                l(4) =   1
                l(5) =   2

     atomic species   valence    mass     pseudopotential
        Sn            14.00   118.71000     Sn( 1.00)
        O              6.00    15.99900     O ( 1.00)

      4 Sym. Ops. (no inversion) found



   Cartesian axes

     site n.     atom                  positions (alat units)
         1           Sn  tau(   1) = (  -0.0003240  -0.0003240   0.0000000  )
         2           Sn  tau(   2) = (   0.4853812   0.4853812   0.3298208  )
         3           O   tau(   3) = (   0.7819507   0.1888137   0.3298208  )
         4           O   tau(   4) = (   0.1888137   0.7819507   0.3298208  )
         5           O   tau(   5) = (   0.2962228   0.2962228   0.0000000  )
         6           O   tau(   6) = (   0.6745399   0.6745399   0.0000000  )

     number of k points=   301

     Number of k-points >= 100: set verbosity='high' to print them.

     Dense  grid:    25949 G-vectors     FFT dimensions: (  45,  45,  30)

     Estimated max dynamical RAM per process >     217.06 MB

     Estimated total dynamical RAM >     434.12 MB

     Check: negative/imaginary core charge=   -0.000076    0.000000

     Initial potential from superposition of free atoms

     starting charge   51.99690, renormalised to   52.00000
     Starting wfc are   34 randomized atomic wfcs

     Writing output data file SnO2.save

     total cpu time spent up to now is     8154.3 secs

     Self-consistent Calculation

     iteration #  1     ecut=    55.00 Ry     beta= 0.70
     Davidson diagonalization with overlap
     ethr =  1.00E-06,  avg # of iterations =  5.5

     total cpu time spent up to now is     8266.1 secs

     total energy              =    -446.82037480 Ry
     Harris-Foulkes estimate   =    -447.88499884 Ry
     estimated scf accuracy    <       1.46958905 Ry

     iteration #  2     ecut=    55.00 Ry     beta= 0.70
     Davidson diagonalization with overlap
     ethr =  2.83E-03,  avg # of iterations =  3.0

     total cpu time spent up to now is     8327.4 secs

     total energy              =    -447.19526670 Ry
     Harris-Foulkes estimate   =    -447.79690773 Ry
     estimated scf accuracy    <       1.18917965 Ry

     iteration #  3     ecut=    55.00 Ry     beta= 0.70
     Davidson diagonalization with overlap
     ethr =  2.29E-03,  avg # of iterations =  3.0

     total cpu time spent up to now is     8386.9 secs

     total energy              =    -447.43854264 Ry
     Harris-Foulkes estimate   =    -447.43932347 Ry
     estimated scf accuracy    <       0.00574097 Ry

     iteration #  4     ecut=    55.00 Ry     beta= 0.70
     Davidson diagonalization with overlap
     ethr =  1.10E-05,  avg # of iterations =  2.9

     total cpu time spent up to now is     8450.7 secs

     total energy              =    -447.44052483 Ry
     Harris-Foulkes estimate   =    -447.44065079 Ry
     estimated scf accuracy    <       0.00027075 Ry

     iteration #  5     ecut=    55.00 Ry     beta= 0.70
     Davidson diagonalization with overlap
     ethr =  5.21E-07,  avg # of iterations =  3.0

     total cpu time spent up to now is     8505.3 secs

     total energy              =    -447.44054699 Ry
     Harris-Foulkes estimate   =    -447.44055484 Ry
     estimated scf accuracy    <       0.00002273 Ry

     iteration #  6     ecut=    55.00 Ry     beta= 0.70
     Davidson diagonalization with overlap
     ethr =  4.37E-08,  avg # of iterations =  2.1

     total cpu time spent up to now is     8567.8 secs

     total energy              =    -447.44055202 Ry
     Harris-Foulkes estimate   =    -447.44055274 Ry
     estimated scf accuracy    <       0.00000202 Ry

     iteration #  7     ecut=    55.00 Ry     beta= 0.70
     Davidson diagonalization with overlap
     ethr =  3.88E-09,  avg # of iterations =  2.1

     total cpu time spent up to now is     8623.6 secs

     total energy              =    -447.44055225 Ry
     Harris-Foulkes estimate   =    -447.44055229 Ry
     estimated scf accuracy    <       0.00000010 Ry

     iteration #  8     ecut=    55.00 Ry     beta= 0.70
     Davidson diagonalization with overlap
     ethr =  2.01E-10,  avg # of iterations =  3.1

     total cpu time spent up to now is     8683.6 secs

     total energy              =    -447.44055228 Ry
     Harris-Foulkes estimate   =    -447.44055228 Ry
     estimated scf accuracy    <       0.00000001 Ry

     iteration #  9     ecut=    55.00 Ry     beta= 0.70
     Davidson diagonalization with overlap
     ethr =  2.46E-11,  avg # of iterations =  3.4

     total cpu time spent up to now is     8745.1 secs

     total energy              =    -447.44055228 Ry
     Harris-Foulkes estimate   =    -447.44055228 Ry
     estimated scf accuracy    <          1.5E-09 Ry

     iteration # 10     ecut=    55.00 Ry     beta= 0.70
     Davidson diagonalization with overlap
     ethr =  2.97E-12,  avg # of iterations =  3.3

     total cpu time spent up to now is     8805.0 secs

     total energy              =    -447.44055228 Ry
     Harris-Foulkes estimate   =    -447.44055228 Ry
     estimated scf accuracy    <          9.4E-11 Ry

     iteration # 11     ecut=    55.00 Ry     beta= 0.70
     Davidson diagonalization with overlap
     ethr =  1.81E-13,  avg # of iterations =  2.3

     total cpu time spent up to now is     8859.2 secs

     total energy              =    -447.44055228 Ry
     Harris-Foulkes estimate   =    -447.44055228 Ry
     estimated scf accuracy    <          2.0E-11 Ry

     iteration # 12     ecut=    55.00 Ry     beta= 0.70
     Davidson diagonalization with overlap
     ethr =  1.00E-13,  avg # of iterations =  3.0

     total cpu time spent up to now is     8912.9 secs

     total energy              =    -447.44055228 Ry
     Harris-Foulkes estimate   =    -447.44055228 Ry
     estimated scf accuracy    <          1.1E-12 Ry

     iteration # 13     ecut=    55.00 Ry     beta= 0.70
     Davidson diagonalization with overlap
     ethr =  1.00E-13,  avg # of iterations =  1.0

     total cpu time spent up to now is     8958.3 secs

     total energy              =    -447.44055228 Ry
     Harris-Foulkes estimate   =    -447.44055228 Ry
     estimated scf accuracy    <          1.9E-13 Ry

     iteration # 14     ecut=    55.00 Ry     beta= 0.70
     Davidson diagonalization with overlap
     ethr =  1.00E-13,  avg # of iterations =  1.0

     total cpu time spent up to now is     9003.7 secs

     End of self-consistent calculation

     Number of k-points >= 100: set verbosity='high' to print the bands.

     highest occupied level (ev):    10.1920

!    total energy              =    -447.44055228 Ry
     Harris-Foulkes estimate   =    -447.44055228 Ry
     estimated scf accuracy    <          9.8E-15 Ry

     The total energy is the sum of the following terms:

     one-electron contribution =    -111.61966564 Ry
     hartree contribution      =      97.12586810 Ry
     xc contribution           =    -122.40246592 Ry
     ewald contribution        =    -310.54428882 Ry

     convergence has been achieved in  14 iterations

     Forces acting on atoms (cartesian axes, Ry/au):

     atom    1 type  1   force =     0.00000008    0.00000008    0.00000000
     atom    2 type  1   force =    -0.00000053   -0.00000053    0.00000000
     atom    3 type  2   force =     0.00040130   -0.00041053    0.00000000
     atom    4 type  2   force =    -0.00041053    0.00040130    0.00000000
     atom    5 type  2   force =     0.00027352    0.00027352    0.00000000
     atom    6 type  2   force =    -0.00026385   -0.00026385    0.00000000

     Total force =     0.000974     Total SCF correction =     0.000000


     Computing stress (Cartesian axis) and pressure

          total   stress  (Ry/bohr**3)                   (kbar)     P= -118.35
  -0.00086377   0.00000023   0.00000000       -127.06      0.03      0.00
   0.00000023  -0.00086377   0.00000000          0.03   -127.06      0.00
   0.00000000   0.00000000  -0.00068613          0.00      0.00   -100.93


     Writing output data file SnO2.save
 
     init_run     :     46.31s CPU     46.90s WALL (       2 calls)
     electrons    :   8550.74s CPU   8646.09s WALL (      14 calls)
     update_pot   :     17.68s CPU     17.89s WALL (      12 calls)
     forces       :     70.19s CPU     70.80s WALL (      14 calls)
     stress       :    236.86s CPU    238.28s WALL (      14 calls)

     Called by init_run:
     wfcinit      :     44.59s CPU     45.15s WALL (       2 calls)
     potinit      :      0.52s CPU      0.53s WALL (       2 calls)
     hinit0       :      0.99s CPU      1.02s WALL (       2 calls)

     Called by electrons:
     c_bands      :   7525.90s CPU   7606.70s WALL (     139 calls)
     sum_band     :   1020.72s CPU   1034.83s WALL (     139 calls)
     v_of_rho     :      3.81s CPU      3.84s WALL (     144 calls)
     mix_rho      :      0.58s CPU      0.58s WALL (     139 calls)

     Called by c_bands:
     init_us_2    :    155.53s CPU    158.41s WALL (   92708 calls)
     cegterg      :   6769.98s CPU   6845.28s WALL (   41839 calls)

     Called by sum_band:

     Called by *egterg:
     h_psi        :   5712.37s CPU   5783.03s WALL (  147420 calls)
     g_psi        :     79.90s CPU     80.77s WALL (  104979 calls)
     cdiaghg      :    294.06s CPU    287.26s WALL (  140497 calls)

     Called by h_psi:
     h_psi:pot    :   5688.46s CPU   5758.13s WALL (  147420 calls)
     h_psi:calbec :    334.25s CPU    306.90s WALL (  147420 calls)
     vloc_psi     :   5121.13s CPU   5154.55s WALL (  147420 calls)
     add_vuspsi   :    232.74s CPU    296.02s WALL (  147420 calls)

     General routines
     calbec       :    394.59s CPU    358.81s WALL (  168490 calls)
     fft          :      2.24s CPU      2.53s WALL (    1811 calls)
     ffts         :      0.18s CPU      0.18s WALL (     139 calls)
     fftw         :   5761.80s CPU   5673.08s WALL ( 7114840 calls)
 
     Parallel routines
     fft_scatt_xy :    297.12s CPU    511.66s WALL ( 7116790 calls)
     fft_scatt_yz :   2407.94s CPU    585.34s WALL ( 7116790 calls)
 
     PWSCF        :     2h28m CPU        2h30m WALL

 
   This run was terminated on:  19:11: 8   9Apr2018            

=------------------------------------------------------------------------------=
   JOB DONE.
=------------------------------------------------------------------------------=
