
     Program PWSCF v.6.2.2 starts on  7Apr2018 at 23:50:32 

     This program is part of the open-source Quantum ESPRESSO suite
     for quantum simulation of materials; please cite
         "P. Giannozzi et al., J. Phys.:Condens. Matter 21 395502 (2009);
         "P. Giannozzi et al., J. Phys.:Condens. Matter 29 465901 (2017);
          URL http://www.quantum-espresso.org", 
     in publications or presentations arising from this work. More details at
     http://www.quantum-espresso.org/quote

     Parallel version (MPI), running on     2 processors

     MPI processes distributed on     1 nodes
     R & G space division:  proc/nbgrp/npool/nimage =       2
     Reading input from Conv_acell-ecut.in

     Current dimensions of program PWSCF are:
     Max number of different atomic species (ntypx) = 10
     Max number of k-points (npk) =  40000
     Max angular momentum in pseudopotentials (lmaxx) =  3

     Subspace diagonalization in iterative solution of the eigenvalue problem:
     a serial algorithm will be used

 
     Parallelization info
     --------------------
     sticks:   dense  smooth     PW     G-vecs:    dense   smooth      PW
     Min         130     130     48                 1064     1064     250
     Max         131     131     49                 1065     1065     253
     Sum         261     261     97                 2129     2129     503
 


     bravais-lattice index     =            6
     lattice parameter (alat)  =       9.1100  a.u.
     unit-cell volume          =     506.5589 (a.u.)^3
     number of atoms/cell      =            6
     number of atomic types    =            2
     number of electrons       =        52.00
     number of Kohn-Sham states=           26
     kinetic-energy cutoff     =      10.0000  Ry
     charge density cutoff     =      40.0000  Ry
     convergence threshold     =      1.0E-12
     mixing beta               =       0.7000
     number of iterations used =            8  plain     mixing
     Exchange-correlation      = PBE ( 1  4  3  4 0 0)
     nstep                     =           50


     celldm(1)=   9.110000  celldm(2)=   0.000000  celldm(3)=   0.670000
     celldm(4)=   0.000000  celldm(5)=   0.000000  celldm(6)=   0.000000

     crystal axes: (cart. coord. in units of alat)
               a(1) = (   1.000000   0.000000   0.000000 )  
               a(2) = (   0.000000   1.000000   0.000000 )  
               a(3) = (   0.000000   0.000000   0.670000 )  

     reciprocal axes: (cart. coord. in units 2 pi/alat)
               b(1) = (  1.000000  0.000000  0.000000 )  
               b(2) = (  0.000000  1.000000  0.000000 )  
               b(3) = (  0.000000  0.000000  1.492537 )  


     PseudoPot. # 1 for Sn read from file:
     ../../Pseudo_potentials/Sn_PBE.upf
     MD5 check sum: 78e6386ae56e929f0568ae8bf606a80c
     Pseudo is Norm-conserving + core correction, Zval = 14.0
     Generated using ONCVPSP code by D. R. Hamann
     Using radial grid of 1628 points,  6 beta functions with: 
                l(1) =   0
                l(2) =   0
                l(3) =   1
                l(4) =   1
                l(5) =   2
                l(6) =   2

     PseudoPot. # 2 for O  read from file:
     ../../Pseudo_potentials/O_PBE.upf
     MD5 check sum: 3e3f909f7470e8921608ab6b1f57bbae
     Pseudo is Norm-conserving + core correction, Zval =  6.0
     Generated using ONCVPSP code by D. R. Hamann
     Using radial grid of  936 points,  5 beta functions with: 
                l(1) =   0
                l(2) =   0
                l(3) =   1
                l(4) =   1
                l(5) =   2

     atomic species   valence    mass     pseudopotential
        Sn            14.00   118.71000     Sn( 1.00)
        O              6.00    15.99900     O ( 1.00)

      4 Sym. Ops. (no inversion) found



   Cartesian axes

     site n.     atom                  positions (alat units)
         1           Sn  tau(   1) = (   0.0000000   0.0000000   0.0000000  )
         2           Sn  tau(   2) = (   0.5000000   0.5000000   0.3350000  )
         3           O   tau(   3) = (   0.8060000   0.1930000   0.3350000  )
         4           O   tau(   4) = (   0.1930000   0.8060000   0.3350000  )
         5           O   tau(   5) = (   0.3060000   0.3060000   0.0000000  )
         6           O   tau(   6) = (   0.6930000   0.6930000   0.0000000  )

     number of k points=   186

     Number of k-points >= 100: set verbosity='high' to print them.

     Dense  grid:     2129 G-vectors     FFT dimensions: (  20,  20,  15)

     Estimated max dynamical RAM per process >      14.80 MB

     Estimated total dynamical RAM >      29.60 MB

     Check: negative/imaginary core charge=   -0.007768    0.000000

     Initial potential from superposition of free atoms
     Check: negative starting charge=   -0.102810

     starting charge   51.99690, renormalised to   52.00000

     negative rho (up, down):  1.028E-01 0.000E+00
     Starting wfc are   34 randomized atomic wfcs

     total cpu time spent up to now is        5.0 secs

     Self-consistent Calculation

     iteration #  1     ecut=    10.00 Ry     beta= 0.70
     Davidson diagonalization with overlap
     ethr =  1.00E-02,  avg # of iterations =  3.9

     negative rho (up, down):  4.996E-03 0.000E+00

     total cpu time spent up to now is       14.1 secs

     total energy              =    -364.32804890 Ry
     Harris-Foulkes estimate   =    -400.47170246 Ry
     estimated scf accuracy    <      46.40502772 Ry

     iteration #  2     ecut=    10.00 Ry     beta= 0.70
     Davidson diagonalization with overlap
     ethr =  1.00E-02,  avg # of iterations =  4.0

     total cpu time spent up to now is       23.9 secs

     total energy              =    -371.59476064 Ry
     Harris-Foulkes estimate   =    -378.49517825 Ry
     estimated scf accuracy    <      11.35228895 Ry

     iteration #  3     ecut=    10.00 Ry     beta= 0.70
     Davidson diagonalization with overlap
     ethr =  1.00E-02,  avg # of iterations =  3.9

     total cpu time spent up to now is       32.7 secs

     total energy              =    -373.95175051 Ry
     Harris-Foulkes estimate   =    -374.74274375 Ry
     estimated scf accuracy    <       1.25904765 Ry

     iteration #  4     ecut=    10.00 Ry     beta= 0.70
     Davidson diagonalization with overlap
     ethr =  2.42E-03,  avg # of iterations =  2.2

     total cpu time spent up to now is       38.2 secs

     total energy              =    -374.20113056 Ry
     Harris-Foulkes estimate   =    -374.22985101 Ry
     estimated scf accuracy    <       0.05516126 Ry

     iteration #  5     ecut=    10.00 Ry     beta= 0.70
     Davidson diagonalization with overlap
     ethr =  1.06E-04,  avg # of iterations =  2.2

     total cpu time spent up to now is       43.7 secs

     total energy              =    -374.21084014 Ry
     Harris-Foulkes estimate   =    -374.21138437 Ry
     estimated scf accuracy    <       0.00092376 Ry

     iteration #  6     ecut=    10.00 Ry     beta= 0.70
     Davidson diagonalization with overlap
     ethr =  1.78E-06,  avg # of iterations =  3.5

     total cpu time spent up to now is       51.5 secs

     total energy              =    -374.21178394 Ry
     Harris-Foulkes estimate   =    -374.21215323 Ry
     estimated scf accuracy    <       0.00075392 Ry

     iteration #  7     ecut=    10.00 Ry     beta= 0.70
     Davidson diagonalization with overlap
     ethr =  1.45E-06,  avg # of iterations =  3.1

     total cpu time spent up to now is       58.0 secs

     total energy              =    -374.21196019 Ry
     Harris-Foulkes estimate   =    -374.21200020 Ry
     estimated scf accuracy    <       0.00009164 Ry

     iteration #  8     ecut=    10.00 Ry     beta= 0.70
     Davidson diagonalization with overlap
     ethr =  1.76E-07,  avg # of iterations =  3.0

     total cpu time spent up to now is       64.0 secs

     total energy              =    -374.21197397 Ry
     Harris-Foulkes estimate   =    -374.21198174 Ry
     estimated scf accuracy    <       0.00001373 Ry

     iteration #  9     ecut=    10.00 Ry     beta= 0.70
     Davidson diagonalization with overlap
     ethr =  2.64E-08,  avg # of iterations =  3.1

     total cpu time spent up to now is       70.6 secs

     total energy              =    -374.21197665 Ry
     Harris-Foulkes estimate   =    -374.21197806 Ry
     estimated scf accuracy    <       0.00000155 Ry

     iteration # 10     ecut=    10.00 Ry     beta= 0.70
     Davidson diagonalization with overlap
     ethr =  2.99E-09,  avg # of iterations =  3.0

     total cpu time spent up to now is       77.6 secs

     total energy              =    -374.21197697 Ry
     Harris-Foulkes estimate   =    -374.21197694 Ry
     estimated scf accuracy    <       0.00000003 Ry

     iteration # 11     ecut=    10.00 Ry     beta= 0.70
     Davidson diagonalization with overlap
     ethr =  6.21E-11,  avg # of iterations =  3.3

     total cpu time spent up to now is       84.6 secs

     total energy              =    -374.21197697 Ry
     Harris-Foulkes estimate   =    -374.21197697 Ry
     estimated scf accuracy    <          4.9E-09 Ry

     iteration # 12     ecut=    10.00 Ry     beta= 0.70
     Davidson diagonalization with overlap
     ethr =  9.46E-12,  avg # of iterations =  3.3

     total cpu time spent up to now is       91.4 secs

     total energy              =    -374.21197697 Ry
     Harris-Foulkes estimate   =    -374.21197697 Ry
     estimated scf accuracy    <          4.1E-10 Ry

     iteration # 13     ecut=    10.00 Ry     beta= 0.70
     Davidson diagonalization with overlap
     ethr =  7.89E-13,  avg # of iterations =  3.5

     total cpu time spent up to now is       98.4 secs

     total energy              =    -374.21197697 Ry
     Harris-Foulkes estimate   =    -374.21197697 Ry
     estimated scf accuracy    <          3.8E-11 Ry

     iteration # 14     ecut=    10.00 Ry     beta= 0.70
     Davidson diagonalization with overlap
     ethr =  1.00E-13,  avg # of iterations =  3.2

     total cpu time spent up to now is      105.0 secs

     total energy              =    -374.21197697 Ry
     Harris-Foulkes estimate   =    -374.21197697 Ry
     estimated scf accuracy    <          1.7E-12 Ry

     iteration # 15     ecut=    10.00 Ry     beta= 0.70
     Davidson diagonalization with overlap
     ethr =  1.00E-13,  avg # of iterations =  1.0

     total cpu time spent up to now is      108.5 secs

     End of self-consistent calculation

     Number of k-points >= 100: set verbosity='high' to print the bands.

     highest occupied level (ev):    15.5965

!    total energy              =    -374.21197697 Ry
     Harris-Foulkes estimate   =    -374.21197697 Ry
     estimated scf accuracy    <          1.6E-13 Ry

     The total energy is the sum of the following terms:

     one-electron contribution =     -15.51082678 Ry
     hartree contribution      =      48.25755388 Ry
     xc contribution           =    -104.47736791 Ry
     ewald contribution        =    -302.48133617 Ry

     convergence has been achieved in  15 iterations

     Forces acting on atoms (cartesian axes, Ry/au):

     atom    1 type  1   force =     0.00124855    0.00124855    0.00000000
     atom    2 type  1   force =    -0.00018337   -0.00018337    0.00000000
     atom    3 type  2   force =    -0.06074411    0.06121405    0.00000000
     atom    4 type  2   force =     0.06121405   -0.06074411    0.00000000
     atom    5 type  2   force =    -0.05643605   -0.05643605    0.00000000
     atom    6 type  2   force =     0.05490093    0.05490093    0.00000000

     Total force =     0.165153     Total SCF correction =     0.000002


     Computing stress (Cartesian axis) and pressure

          total   stress  (Ry/bohr**3)                   (kbar)     P=-9757.69
  -0.06817688  -0.00000422  -0.00000000     -10029.16     -0.62     -0.00
  -0.00000422  -0.06817688   0.00000000         -0.62 -10029.16      0.00
   0.00000000  -0.00000000  -0.06264059          0.00     -0.00  -9214.75


     BFGS Geometry Optimization

     number of scf cycles    =   1
     number of bfgs steps    =   0

     enthalpy new            =    -374.2119769748 Ry

     new trust radius        =       0.5000000000 bohr
     new conv_thr            =            1.0E-12 Ry

     new unit-cell volume =    359.42365 a.u.^3 (    53.26109 Ang^3 )
     density =      9.39735 g/cm^3

CELL_PARAMETERS (alat=  9.11000000)
   0.888922769  -0.000006872   0.000000000
  -0.000006872   0.888922769  -0.000000000
  -0.000000000   0.000000000   0.601621649

ATOMIC_POSITIONS (crystal)
Sn       0.000008932   0.000008932   0.000000000
Sn       0.499998688   0.499998688   0.500000000
O        0.805565456   0.193437906   0.500000000
O        0.193437906   0.805565456   0.500000000
O        0.305596275   0.305596275   0.000000000
O        0.693392744   0.693392744   0.000000000



     Writing output data file SnO2.save
     Check: negative starting charge=   -0.102810
     NEW-OLD atomic charge density approx. for the potential

     Check: negative/imaginary core charge=   -0.007946    0.000000
     Check: negative starting charge=   -0.051693

     negative rho (up, down):  5.480E+00 0.000E+00
     extrapolated charge   30.71432, renormalised to   52.00000

     total cpu time spent up to now is      110.9 secs

     Self-consistent Calculation

     iteration #  1     ecut=    10.00 Ry     beta= 0.70
     Davidson diagonalization with overlap
     c_bands:  1 eigenvalues not converged
     c_bands:  1 eigenvalues not converged
     c_bands:  1 eigenvalues not converged
     c_bands:  1 eigenvalues not converged
     c_bands:  1 eigenvalues not converged
     c_bands:  1 eigenvalues not converged
     c_bands:  1 eigenvalues not converged
     c_bands:  1 eigenvalues not converged
     c_bands:  1 eigenvalues not converged
     c_bands:  1 eigenvalues not converged
     c_bands:  2 eigenvalues not converged
     c_bands:  2 eigenvalues not converged
     c_bands:  1 eigenvalues not converged
     c_bands:  1 eigenvalues not converged
     c_bands:  1 eigenvalues not converged
     c_bands:  1 eigenvalues not converged
     c_bands:  1 eigenvalues not converged
     c_bands:  1 eigenvalues not converged
     c_bands:  1 eigenvalues not converged
     ethr =  1.00E-06,  avg # of iterations = 15.6

     negative rho (up, down):  1.716E-02 0.000E+00

     total cpu time spent up to now is      133.5 secs

     total energy              =    -363.51928529 Ry
     Harris-Foulkes estimate   =    -423.98921623 Ry
     estimated scf accuracy    <      80.62789400 Ry

     iteration #  2     ecut=    10.00 Ry     beta= 0.70
     Davidson diagonalization with overlap
     ethr =  1.00E-02,  avg # of iterations =  4.3

     total cpu time spent up to now is      144.6 secs

     total energy              =    -378.97853593 Ry
     Harris-Foulkes estimate   =    -394.52334779 Ry
     estimated scf accuracy    <      23.31286872 Ry

     iteration #  3     ecut=    10.00 Ry     beta= 0.70
     Davidson diagonalization with overlap
     ethr =  1.00E-02,  avg # of iterations =  3.1

     total cpu time spent up to now is      153.3 secs

     total energy              =    -385.87585369 Ry
     Harris-Foulkes estimate   =    -386.21068305 Ry
     estimated scf accuracy    <       0.65575199 Ry

     iteration #  4     ecut=    10.00 Ry     beta= 0.70
     Davidson diagonalization with overlap
     ethr =  1.26E-03,  avg # of iterations =  2.1

     total cpu time spent up to now is      158.7 secs

     total energy              =    -385.97575229 Ry
     Harris-Foulkes estimate   =    -385.98258582 Ry
     estimated scf accuracy    <       0.01967075 Ry

     iteration #  5     ecut=    10.00 Ry     beta= 0.70
     Davidson diagonalization with overlap
     ethr =  3.78E-05,  avg # of iterations =  3.1

     total cpu time spent up to now is      166.4 secs

     total energy              =    -385.97793325 Ry
     Harris-Foulkes estimate   =    -385.98275029 Ry
     estimated scf accuracy    <       0.00933794 Ry

     iteration #  6     ecut=    10.00 Ry     beta= 0.70
     Davidson diagonalization with overlap
     ethr =  1.80E-05,  avg # of iterations =  2.9

     total cpu time spent up to now is      173.2 secs

     total energy              =    -385.98063414 Ry
     Harris-Foulkes estimate   =    -385.98092506 Ry
     estimated scf accuracy    <       0.00082924 Ry

     iteration #  7     ecut=    10.00 Ry     beta= 0.70
     Davidson diagonalization with overlap
     ethr =  1.59E-06,  avg # of iterations =  2.7

     total cpu time spent up to now is      178.7 secs

     total energy              =    -385.98079363 Ry
     Harris-Foulkes estimate   =    -385.98079806 Ry
     estimated scf accuracy    <       0.00001209 Ry

     iteration #  8     ecut=    10.00 Ry     beta= 0.70
     Davidson diagonalization with overlap
     ethr =  2.32E-08,  avg # of iterations =  2.8

     total cpu time spent up to now is      185.0 secs

     total energy              =    -385.98079638 Ry
     Harris-Foulkes estimate   =    -385.98079681 Ry
     estimated scf accuracy    <       0.00000085 Ry

     iteration #  9     ecut=    10.00 Ry     beta= 0.70
     Davidson diagonalization with overlap
     ethr =  1.64E-09,  avg # of iterations =  3.0

     total cpu time spent up to now is      191.4 secs

     total energy              =    -385.98096191 Ry
     Harris-Foulkes estimate   =    -385.98096210 Ry
     estimated scf accuracy    <       0.00000231 Ry

     iteration # 10     ecut=    10.00 Ry     beta= 0.70
     Davidson diagonalization with overlap
     ethr =  1.64E-09,  avg # of iterations =  1.0

     total cpu time spent up to now is      194.9 secs

     total energy              =    -385.98096134 Ry
     Harris-Foulkes estimate   =    -385.98096191 Ry
     estimated scf accuracy    <       0.00000181 Ry

     iteration # 11     ecut=    10.00 Ry     beta= 0.70
     Davidson diagonalization with overlap
     ethr =  1.64E-09,  avg # of iterations =  3.2

     total cpu time spent up to now is      200.9 secs

     total energy              =    -385.98096152 Ry
     Harris-Foulkes estimate   =    -385.98096153 Ry
     estimated scf accuracy    <       0.00000025 Ry

     iteration # 12     ecut=    10.00 Ry     beta= 0.70
     Davidson diagonalization with overlap
     ethr =  4.83E-10,  avg # of iterations =  2.9

     total cpu time spent up to now is      206.8 secs

     total energy              =    -385.98154360 Ry
     Harris-Foulkes estimate   =    -385.98154349 Ry
     estimated scf accuracy    <       0.00000631 Ry

     iteration # 13     ecut=    10.00 Ry     beta= 0.70
     Davidson diagonalization with overlap
     ethr =  4.83E-10,  avg # of iterations =  1.0

     total cpu time spent up to now is      210.3 secs

     total energy              =    -385.98154316 Ry
     Harris-Foulkes estimate   =    -385.98154360 Ry
     estimated scf accuracy    <       0.00000663 Ry

     iteration # 14     ecut=    10.00 Ry     beta= 0.70
     Davidson diagonalization with overlap
     ethr =  4.83E-10,  avg # of iterations =  1.9

     total cpu time spent up to now is      214.5 secs

     total energy              =    -385.98154216 Ry
     Harris-Foulkes estimate   =    -385.98154317 Ry
     estimated scf accuracy    <       0.00000509 Ry

     iteration # 15     ecut=    10.00 Ry     beta= 0.70
     Davidson diagonalization with overlap
     ethr =  4.83E-10,  avg # of iterations =  2.9

     total cpu time spent up to now is      221.1 secs

     total energy              =    -385.98154218 Ry
     Harris-Foulkes estimate   =    -385.98154225 Ry
     estimated scf accuracy    <       0.00000192 Ry

     iteration # 16     ecut=    10.00 Ry     beta= 0.70
     Davidson diagonalization with overlap
     ethr =  4.83E-10,  avg # of iterations =  1.0

     total cpu time spent up to now is      224.7 secs

     total energy              =    -385.98154175 Ry
     Harris-Foulkes estimate   =    -385.98154218 Ry
     estimated scf accuracy    <       0.00000165 Ry

     iteration # 17     ecut=    10.00 Ry     beta= 0.70
     Davidson diagonalization with overlap
     ethr =  4.83E-10,  avg # of iterations =  3.0

     total cpu time spent up to now is      231.4 secs

     total energy              =    -385.98154182 Ry
     Harris-Foulkes estimate   =    -385.98154182 Ry
     estimated scf accuracy    <       0.00000012 Ry

     iteration # 18     ecut=    10.00 Ry     beta= 0.70
     Davidson diagonalization with overlap
     ethr =  2.27E-10,  avg # of iterations =  1.0

     total cpu time spent up to now is      235.0 secs

     total energy              =    -385.98154183 Ry
     Harris-Foulkes estimate   =    -385.98154182 Ry
     estimated scf accuracy    <       0.00000004 Ry

     iteration # 19     ecut=    10.00 Ry     beta= 0.70
     Davidson diagonalization with overlap
     ethr =  8.20E-11,  avg # of iterations =  2.6

     total cpu time spent up to now is      240.4 secs

     total energy              =    -385.98154184 Ry
     Harris-Foulkes estimate   =    -385.98154184 Ry
     estimated scf accuracy    <          2.8E-09 Ry

     iteration # 20     ecut=    10.00 Ry     beta= 0.70
     Davidson diagonalization with overlap
     ethr =  5.38E-12,  avg # of iterations =  1.7

     total cpu time spent up to now is      244.4 secs

     total energy              =    -385.98154183 Ry
     Harris-Foulkes estimate   =    -385.98154184 Ry
     estimated scf accuracy    <          1.5E-09 Ry

     iteration # 21     ecut=    10.00 Ry     beta= 0.70
     Davidson diagonalization with overlap
     ethr =  2.80E-12,  avg # of iterations =  2.7

     total cpu time spent up to now is      249.7 secs

     total energy              =    -385.98154183 Ry
     Harris-Foulkes estimate   =    -385.98154183 Ry
     estimated scf accuracy    <          8.3E-11 Ry

     iteration # 22     ecut=    10.00 Ry     beta= 0.70
     Davidson diagonalization with overlap
     ethr =  1.60E-13,  avg # of iterations =  2.3

     total cpu time spent up to now is      255.4 secs

     total energy              =    -385.98212570 Ry
     Harris-Foulkes estimate   =    -385.98212569 Ry
     estimated scf accuracy    <       0.00001700 Ry

     iteration # 23     ecut=    10.00 Ry     beta= 0.70
     Davidson diagonalization with overlap
     ethr =  1.60E-13,  avg # of iterations =  2.4

     total cpu time spent up to now is      260.8 secs

     total energy              =    -385.98212573 Ry
     Harris-Foulkes estimate   =    -385.98212570 Ry
     estimated scf accuracy    <       0.00001706 Ry

     iteration # 24     ecut=    10.00 Ry     beta= 0.70
     Davidson diagonalization with overlap
     ethr =  1.60E-13,  avg # of iterations =  3.3

     total cpu time spent up to now is      268.0 secs

     total energy              =    -385.98212573 Ry
     Harris-Foulkes estimate   =    -385.98212573 Ry
     estimated scf accuracy    <       0.00001715 Ry

     iteration # 25     ecut=    10.00 Ry     beta= 0.70
     Davidson diagonalization with overlap
     ethr =  1.60E-13,  avg # of iterations =  1.0

     total cpu time spent up to now is      271.6 secs

     total energy              =    -385.98212573 Ry
     Harris-Foulkes estimate   =    -385.98212573 Ry
     estimated scf accuracy    <       0.00001715 Ry

     iteration # 26     ecut=    10.00 Ry     beta= 0.70
     Davidson diagonalization with overlap
     ethr =  1.60E-13,  avg # of iterations =  1.2

     total cpu time spent up to now is      275.3 secs

     total energy              =    -385.98212570 Ry
     Harris-Foulkes estimate   =    -385.98212573 Ry
     estimated scf accuracy    <       0.00001714 Ry

     iteration # 27     ecut=    10.00 Ry     beta= 0.70
     Davidson diagonalization with overlap
     ethr =  1.60E-13,  avg # of iterations =  3.1

     total cpu time spent up to now is      281.1 secs

     total energy              =    -385.98212569 Ry
     Harris-Foulkes estimate   =    -385.98212570 Ry
     estimated scf accuracy    <       0.00001705 Ry

     iteration # 28     ecut=    10.00 Ry     beta= 0.70
     Davidson diagonalization with overlap
     ethr =  1.60E-13,  avg # of iterations =  1.0

     total cpu time spent up to now is      284.7 secs

     total energy              =    -385.98212565 Ry
     Harris-Foulkes estimate   =    -385.98212569 Ry
     estimated scf accuracy    <       0.00001702 Ry

     iteration # 29     ecut=    10.00 Ry     beta= 0.70
     Davidson diagonalization with overlap
     ethr =  1.60E-13,  avg # of iterations =  3.3

     total cpu time spent up to now is      291.9 secs

     total energy              =    -385.98212564 Ry
     Harris-Foulkes estimate   =    -385.98212565 Ry
     estimated scf accuracy    <       0.00001687 Ry

     iteration # 30     ecut=    10.00 Ry     beta= 0.70
     Davidson diagonalization with overlap
     ethr =  1.60E-13,  avg # of iterations =  1.0

     total cpu time spent up to now is      295.4 secs

     total energy              =    -385.98211910 Ry
     Harris-Foulkes estimate   =    -385.98212564 Ry
     estimated scf accuracy    <       0.00001683 Ry

     iteration # 31     ecut=    10.00 Ry     beta= 0.70
     Davidson diagonalization with overlap
     ethr =  1.60E-13,  avg # of iterations =  9.5

     total cpu time spent up to now is      313.5 secs

     total energy              =    -385.98212087 Ry
     Harris-Foulkes estimate   =    -385.98212086 Ry
     estimated scf accuracy    <          1.3E-09 Ry

     iteration # 32     ecut=    10.00 Ry     beta= 0.70
     Davidson diagonalization with overlap
     ethr =  1.60E-13,  avg # of iterations =  3.9

     total cpu time spent up to now is      322.8 secs

     total energy              =    -385.98212087 Ry
     Harris-Foulkes estimate   =    -385.98212087 Ry
     estimated scf accuracy    <          1.8E-10 Ry

     iteration # 33     ecut=    10.00 Ry     beta= 0.70
     Davidson diagonalization with overlap
     ethr =  1.60E-13,  avg # of iterations =  2.5

     total cpu time spent up to now is      328.5 secs

     total energy              =    -385.98212087 Ry
     Harris-Foulkes estimate   =    -385.98212087 Ry
     estimated scf accuracy    <          8.2E-11 Ry

     iteration # 34     ecut=    10.00 Ry     beta= 0.70
     Davidson diagonalization with overlap
     ethr =  1.57E-13,  avg # of iterations =  2.2

     total cpu time spent up to now is      333.7 secs

     total energy              =    -385.98212087 Ry
     Harris-Foulkes estimate   =    -385.98212087 Ry
     estimated scf accuracy    <          2.9E-11 Ry

     iteration # 35     ecut=    10.00 Ry     beta= 0.70
     Davidson diagonalization with overlap
     ethr =  1.00E-13,  avg # of iterations =  2.4

     total cpu time spent up to now is      338.2 secs

     total energy              =    -385.98212087 Ry
     Harris-Foulkes estimate   =    -385.98212087 Ry
     estimated scf accuracy    <          7.6E-12 Ry

     iteration # 36     ecut=    10.00 Ry     beta= 0.70
     Davidson diagonalization with overlap
     ethr =  1.00E-13,  avg # of iterations =  1.0

     total cpu time spent up to now is      341.8 secs

     total energy              =    -385.98212087 Ry
     Harris-Foulkes estimate   =    -385.98212087 Ry
     estimated scf accuracy    <          4.0E-12 Ry

     iteration # 37     ecut=    10.00 Ry     beta= 0.70
     Davidson diagonalization with overlap
     ethr =  1.00E-13,  avg # of iterations =  1.4

     total cpu time spent up to now is      345.6 secs

     End of self-consistent calculation

     Number of k-points >= 100: set verbosity='high' to print the bands.

     highest occupied level (ev):    24.7699

!    total energy              =    -385.98212087 Ry
     Harris-Foulkes estimate   =    -385.98212087 Ry
     estimated scf accuracy    <          3.0E-14 Ry

     The total energy is the sum of the following terms:

     one-electron contribution =      17.93420675 Ry
     hartree contribution      =      44.66509538 Ry
     xc contribution           =    -109.04226600 Ry
     ewald contribution        =    -339.53915699 Ry

     convergence has been achieved in  37 iterations

     Forces acting on atoms (cartesian axes, Ry/au):

     atom    1 type  1   force =    -0.00338638   -0.00338638   -0.00000000
     atom    2 type  1   force =    -0.00243021   -0.00243021   -0.00000000
     atom    3 type  2   force =    -0.10831079    0.10900924   -0.00000000
     atom    4 type  2   force =     0.10900924   -0.10831079    0.00000000
     atom    5 type  2   force =    -0.08021000   -0.08021000   -0.00000000
     atom    6 type  2   force =     0.08532815    0.08532815    0.00000000

     Total force =     0.273299     Total SCF correction =     0.000001


     Computing stress (Cartesian axis) and pressure

          total   stress  (Ry/bohr**3)                   (kbar)     P=********
  -0.09843741   0.00004131  -0.00000000     -14480.64      6.08     -0.00
   0.00004131  -0.09843741  -0.00000000          6.08 -14480.64     -0.00
   0.00000000  -0.00000000  -0.08996933          0.00     -0.00 -13234.94


     number of scf cycles    =   2
     number of bfgs steps    =   1

     enthalpy old            =    -374.2119769748 Ry
     enthalpy new            =    -385.9821208667 Ry

     CASE: enthalpy_new < enthalpy_old


     WARNING: bfgs curvature condition failed, Theta= 0.245
     new trust radius        =       0.7106988134 bohr
     new conv_thr            =            1.0E-12 Ry

     new unit-cell volume =    196.09115 a.u.^3 (    29.05771 Ang^3 )
     density =     17.22479 g/cm^3

CELL_PARAMETERS (alat=  9.11000000)
   0.722306958  -0.000114970   0.000000000
  -0.000114970   0.722306958  -0.000000000
  -0.000000000   0.000000000   0.497117762

ATOMIC_POSITIONS (crystal)
Sn       0.000073650   0.000073650   0.000000000
Sn       0.500019201   0.500019201   0.500000000
O        0.805216708   0.193790782   0.500000000
O        0.193790782   0.805216708   0.500000000
O        0.305062874   0.305062874   0.000000000
O        0.693836785   0.693836785   0.000000000



     Writing output data file SnO2.save
     Check: negative starting charge=   -0.051693
     NEW-OLD atomic charge density approx. for the potential

     Check: negative/imaginary core charge=   -0.007064    0.000000
     Check: negative starting charge=   -0.026753

     negative rho (up, down):  1.605E+01 0.000E+00
     extrapolated charge    8.68961, renormalised to   52.00000

     total cpu time spent up to now is      348.0 secs

     Self-consistent Calculation

     iteration #  1     ecut=    10.00 Ry     beta= 0.70
     Davidson diagonalization with overlap
     c_bands:  1 eigenvalues not converged
     c_bands:  1 eigenvalues not converged
     c_bands:  1 eigenvalues not converged
     c_bands:  1 eigenvalues not converged
     c_bands:  1 eigenvalues not converged
     c_bands:  1 eigenvalues not converged
     c_bands:  1 eigenvalues not converged
     ethr =  1.00E-06,  avg # of iterations = 15.5

     negative rho (up, down):  1.811E+01 0.000E+00

     total cpu time spent up to now is      374.3 secs

     total energy              =    -507.88978538 Ry
     Harris-Foulkes estimate   =    -891.34795055 Ry
     estimated scf accuracy    <    1977.59213656 Ry

     iteration #  2     ecut=    10.00 Ry     beta= 0.70
     Davidson diagonalization with overlap
     ethr =  1.00E-02,  avg # of iterations =  5.2

     total cpu time spent up to now is      385.3 secs

     total energy              =    -373.21780745 Ry
     Harris-Foulkes estimate   =    -514.83577157 Ry
     estimated scf accuracy    <     161.77870118 Ry

     iteration #  3     ecut=    10.00 Ry     beta= 0.70
     Davidson diagonalization with overlap
     ethr =  1.00E-02,  avg # of iterations =  4.5

     total cpu time spent up to now is      395.9 secs

     total energy              =    -403.73449540 Ry
     Harris-Foulkes estimate   =    -417.99449541 Ry
     estimated scf accuracy    <      25.88217257 Ry

     iteration #  4     ecut=    10.00 Ry     beta= 0.70
     Davidson diagonalization with overlap
     ethr =  1.00E-02,  avg # of iterations =  4.1

     total cpu time spent up to now is      404.1 secs

     total energy              =    -404.53782266 Ry
     Harris-Foulkes estimate   =    -406.48009309 Ry
     estimated scf accuracy    <       2.94861918 Ry

     iteration #  5     ecut=    10.00 Ry     beta= 0.70
     Davidson diagonalization with overlap
     ethr =  5.67E-03,  avg # of iterations =  2.2

     total cpu time spent up to now is      408.7 secs

     total energy              =    -404.62677114 Ry
     Harris-Foulkes estimate   =    -404.78841319 Ry
     estimated scf accuracy    <       0.48253716 Ry

     iteration #  6     ecut=    10.00 Ry     beta= 0.70
     Davidson diagonalization with overlap
     ethr =  9.28E-04,  avg # of iterations =  2.2

     total cpu time spent up to now is      413.8 secs

     total energy              =    -404.52712965 Ry
     Harris-Foulkes estimate   =    -404.67929565 Ry
     estimated scf accuracy    <       0.21007984 Ry

     iteration #  7     ecut=    10.00 Ry     beta= 0.70
     Davidson diagonalization with overlap
     ethr =  4.04E-04,  avg # of iterations =  2.6

     total cpu time spent up to now is      419.8 secs

     total energy              =    -404.55686476 Ry
     Harris-Foulkes estimate   =    -404.55960220 Ry
     estimated scf accuracy    <       0.00570753 Ry

     iteration #  8     ecut=    10.00 Ry     beta= 0.70
     Davidson diagonalization with overlap
     ethr =  1.10E-05,  avg # of iterations =  2.5

     total cpu time spent up to now is      425.3 secs

     total energy              =    -404.55738249 Ry
     Harris-Foulkes estimate   =    -404.55783422 Ry
     estimated scf accuracy    <       0.00101221 Ry

     iteration #  9     ecut=    10.00 Ry     beta= 0.70
     Davidson diagonalization with overlap
     ethr =  1.95E-06,  avg # of iterations =  2.2

     total cpu time spent up to now is      430.3 secs

     total energy              =    -404.55743685 Ry
     Harris-Foulkes estimate   =    -404.55750392 Ry
     estimated scf accuracy    <       0.00019515 Ry

     iteration # 10     ecut=    10.00 Ry     beta= 0.70
     Davidson diagonalization with overlap
     ethr =  3.75E-07,  avg # of iterations =  2.1

     total cpu time spent up to now is      434.6 secs

     total energy              =    -404.55740573 Ry
     Harris-Foulkes estimate   =    -404.55744695 Ry
     estimated scf accuracy    <       0.00005928 Ry

     iteration # 11     ecut=    10.00 Ry     beta= 0.70
     Davidson diagonalization with overlap
     ethr =  1.14E-07,  avg # of iterations =  2.5

     total cpu time spent up to now is      440.4 secs

     total energy              =    -404.55741305 Ry
     Harris-Foulkes estimate   =    -404.55741386 Ry
     estimated scf accuracy    <       0.00000140 Ry

     iteration # 12     ecut=    10.00 Ry     beta= 0.70
     Davidson diagonalization with overlap
     ethr =  2.68E-09,  avg # of iterations =  2.8

     total cpu time spent up to now is      447.8 secs

     total energy              =    -404.55741330 Ry
     Harris-Foulkes estimate   =    -404.55741331 Ry
     estimated scf accuracy    <       0.00000002 Ry

     iteration # 13     ecut=    10.00 Ry     beta= 0.70
     Davidson diagonalization with overlap
     ethr =  3.10E-11,  avg # of iterations =  3.0

     total cpu time spent up to now is      455.1 secs

     total energy              =    -404.55741330 Ry
     Harris-Foulkes estimate   =    -404.55741330 Ry
     estimated scf accuracy    <          2.6E-10 Ry

     iteration # 14     ecut=    10.00 Ry     beta= 0.70
     Davidson diagonalization with overlap
     ethr =  4.91E-13,  avg # of iterations =  2.7

     total cpu time spent up to now is      461.6 secs

     total energy              =    -404.55741330 Ry
     Harris-Foulkes estimate   =    -404.55741330 Ry
     estimated scf accuracy    <          3.1E-11 Ry

     iteration # 15     ecut=    10.00 Ry     beta= 0.70
     Davidson diagonalization with overlap
     ethr =  1.00E-13,  avg # of iterations =  2.0

     total cpu time spent up to now is      467.0 secs

     End of self-consistent calculation

     Number of k-points >= 100: set verbosity='high' to print the bands.

     highest occupied level (ev):    44.5917

!    total energy              =    -404.55741330 Ry
     Harris-Foulkes estimate   =    -404.55741330 Ry
     estimated scf accuracy    <          9.7E-13 Ry

     The total energy is the sum of the following terms:

     one-electron contribution =      92.09126668 Ry
     hartree contribution      =      39.70246466 Ry
     xc contribution           =    -120.07924212 Ry
     ewald contribution        =    -416.27190251 Ry

     convergence has been achieved in  15 iterations

     Forces acting on atoms (cartesian axes, Ry/au):

     atom    1 type  1   force =    -0.01976806   -0.01976806   -0.00000000
     atom    2 type  1   force =    -0.00842807   -0.00842807   -0.00000000
     atom    3 type  2   force =    -0.24090393    0.22727984   -0.00000000
     atom    4 type  2   force =     0.22727984   -0.24090393    0.00000000
     atom    5 type  2   force =    -0.20515130   -0.20515130   -0.00000000
     atom    6 type  2   force =     0.24697151    0.24697151    0.00000000

     Total force =     0.653046     Total SCF correction =     0.000005


     Computing stress (Cartesian axis) and pressure

          total   stress  (Ry/bohr**3)                   (kbar)     P=********
  -0.11808422   0.00017142   0.00000000     -17370.79     25.22      0.00
   0.00017142  -0.11808422  -0.00000000         25.22 -17370.79     -0.00
   0.00000000  -0.00000000  -0.09673735          0.00     -0.00 -14230.55


     number of scf cycles    =   3
     number of bfgs steps    =   2

     enthalpy old            =    -385.9821208667 Ry
     enthalpy new            =    -404.5574133031 Ry

     CASE: enthalpy_new < enthalpy_old

     new trust radius        =       0.8000000000 bohr
     new conv_thr            =            1.0E-12 Ry

     new unit-cell volume =     97.51371 a.u.^3 (    14.45004 Ang^3 )
     density =     34.63748 g/cm^3

CELL_PARAMETERS (alat=  9.11000000)
   0.515985444   0.001225204  -0.000000000
   0.001225204   0.515985444  -0.000000000
   0.000000000  -0.000000000   0.484437866

ATOMIC_POSITIONS (crystal)
Sn      -0.001198951  -0.001198951   0.000000000
Sn       0.499546301   0.499546301   0.500000000
O        0.793840269   0.204019349   0.500000000
O        0.204019349   0.793840269   0.500000000
O        0.294236772   0.294236772   0.000000000
O        0.707556260   0.707556260  -0.000000000



     Writing output data file SnO2.save
     Check: negative starting charge=   -0.026753
     NEW-OLD atomic charge density approx. for the potential

     Check: negative/imaginary core charge=   -0.003668    0.000000
     Check: negative starting charge=   -0.000328

     negative rho (up, down):  1.535E+01 0.000E+00

     total cpu time spent up to now is      469.6 secs

     Self-consistent Calculation

     iteration #  1     ecut=    10.00 Ry     beta= 0.70
     Davidson diagonalization with overlap
     ethr =  1.00E-06,  avg # of iterations = 11.2

 %%%%%%%%%%%%%%%%%%%%%%%%%%%%%%%%%%%%%%%%%%%%%%%%%%%%%%%%%%%%%%%%%%%%%%%%%%%%%%
     Error in routine electrons (1):
     charge is wrong: smearing is needed
 %%%%%%%%%%%%%%%%%%%%%%%%%%%%%%%%%%%%%%%%%%%%%%%%%%%%%%%%%%%%%%%%%%%%%%%%%%%%%%

     stopping ...

     total cpu time spent up to now is      491.4 secs

     WARNING: integrated charge=    36.23076537, expected=    52.00000000

 %%%%%%%%%%%%%%%%%%%%%%%%%%%%%%%%%%%%%%%%%%%%%%%%%%%%%%%%%%%%%%%%%%%%%%%%%%%%%%
     Error in routine electrons (1):
     charge is wrong: smearing is needed
 %%%%%%%%%%%%%%%%%%%%%%%%%%%%%%%%%%%%%%%%%%%%%%%%%%%%%%%%%%%%%%%%%%%%%%%%%%%%%%

     stopping ...
