
     Program PWSCF v.6.2.2 starts on  9Apr2018 at 14: 7:24 

     This program is part of the open-source Quantum ESPRESSO suite
     for quantum simulation of materials; please cite
         "P. Giannozzi et al., J. Phys.:Condens. Matter 21 395502 (2009);
         "P. Giannozzi et al., J. Phys.:Condens. Matter 29 465901 (2017);
          URL http://www.quantum-espresso.org", 
     in publications or presentations arising from this work. More details at
     http://www.quantum-espresso.org/quote

     Parallel version (MPI), running on     2 processors

     MPI processes distributed on     1 nodes
     R & G space division:  proc/nbgrp/npool/nimage =       2
     Reading input from Conv_acell-ecut.in

     Current dimensions of program PWSCF are:
     Max number of different atomic species (ntypx) = 10
     Max number of k-points (npk) =  40000
     Max angular momentum in pseudopotentials (lmaxx) =  3

     Subspace diagonalization in iterative solution of the eigenvalue problem:
     a serial algorithm will be used

 
     Parallelization info
     --------------------
     sticks:   dense  smooth     PW     G-vecs:    dense   smooth      PW
     Min         656     656    200                12096    12096    2034
     Max         657     657    201                12099    12099    2037
     Sum        1313    1313    401                24195    24195    4071
 


     bravais-lattice index     =            6
     lattice parameter (alat)  =       9.1100  a.u.
     unit-cell volume          =     506.5589 (a.u.)^3
     number of atoms/cell      =            6
     number of atomic types    =            2
     number of electrons       =        52.00
     number of Kohn-Sham states=           26
     kinetic-energy cutoff     =      50.0000  Ry
     charge density cutoff     =     200.0000  Ry
     convergence threshold     =      1.0E-12
     mixing beta               =       0.7000
     number of iterations used =            8  plain     mixing
     Exchange-correlation      = PBE ( 1  4  3  4 0 0)
     nstep                     =           50


     celldm(1)=   9.110000  celldm(2)=   0.000000  celldm(3)=   0.670000
     celldm(4)=   0.000000  celldm(5)=   0.000000  celldm(6)=   0.000000

     crystal axes: (cart. coord. in units of alat)
               a(1) = (   1.000000   0.000000   0.000000 )  
               a(2) = (   0.000000   1.000000   0.000000 )  
               a(3) = (   0.000000   0.000000   0.670000 )  

     reciprocal axes: (cart. coord. in units 2 pi/alat)
               b(1) = (  1.000000  0.000000  0.000000 )  
               b(2) = (  0.000000  1.000000  0.000000 )  
               b(3) = (  0.000000  0.000000  1.492537 )  


     PseudoPot. # 1 for Sn read from file:
     ../../Pseudo_potentials/Sn_PBE.upf
     MD5 check sum: 78e6386ae56e929f0568ae8bf606a80c
     Pseudo is Norm-conserving + core correction, Zval = 14.0
     Generated using ONCVPSP code by D. R. Hamann
     Using radial grid of 1628 points,  6 beta functions with: 
                l(1) =   0
                l(2) =   0
                l(3) =   1
                l(4) =   1
                l(5) =   2
                l(6) =   2

     PseudoPot. # 2 for O  read from file:
     ../../Pseudo_potentials/O_PBE.upf
     MD5 check sum: 3e3f909f7470e8921608ab6b1f57bbae
     Pseudo is Norm-conserving + core correction, Zval =  6.0
     Generated using ONCVPSP code by D. R. Hamann
     Using radial grid of  936 points,  5 beta functions with: 
                l(1) =   0
                l(2) =   0
                l(3) =   1
                l(4) =   1
                l(5) =   2

     atomic species   valence    mass     pseudopotential
        Sn            14.00   118.71000     Sn( 1.00)
        O              6.00    15.99900     O ( 1.00)

      4 Sym. Ops. (no inversion) found



   Cartesian axes

     site n.     atom                  positions (alat units)
         1           Sn  tau(   1) = (   0.0000000   0.0000000   0.0000000  )
         2           Sn  tau(   2) = (   0.5000000   0.5000000   0.3350000  )
         3           O   tau(   3) = (   0.8060000   0.1930000   0.3350000  )
         4           O   tau(   4) = (   0.1930000   0.8060000   0.3350000  )
         5           O   tau(   5) = (   0.3060000   0.3060000   0.0000000  )
         6           O   tau(   6) = (   0.6930000   0.6930000   0.0000000  )

     number of k points=   301

     Number of k-points >= 100: set verbosity='high' to print them.

     Dense  grid:    24195 G-vectors     FFT dimensions: (  45,  45,  27)

     Estimated max dynamical RAM per process >     202.44 MB

     Estimated total dynamical RAM >     404.89 MB

     Check: negative/imaginary core charge=   -0.000145    0.000000

     Initial potential from superposition of free atoms

     starting charge   51.99690, renormalised to   52.00000
     Starting wfc are   34 randomized atomic wfcs

     total cpu time spent up to now is       22.5 secs

     Self-consistent Calculation

     iteration #  1     ecut=    50.00 Ry     beta= 0.70
     Davidson diagonalization with overlap
     ethr =  1.00E-02,  avg # of iterations =  2.0

     total cpu time spent up to now is       70.2 secs

     total energy              =    -446.60219648 Ry
     Harris-Foulkes estimate   =    -447.64126503 Ry
     estimated scf accuracy    <       1.43633263 Ry

     iteration #  2     ecut=    50.00 Ry     beta= 0.70
     Davidson diagonalization with overlap
     ethr =  2.76E-03,  avg # of iterations =  3.1

     total cpu time spent up to now is      128.4 secs

     total energy              =    -446.96525994 Ry
     Harris-Foulkes estimate   =    -447.64116979 Ry
     estimated scf accuracy    <       1.37567612 Ry

     iteration #  3     ecut=    50.00 Ry     beta= 0.70
     Davidson diagonalization with overlap
     ethr =  2.65E-03,  avg # of iterations =  3.0

     total cpu time spent up to now is      183.9 secs

     total energy              =    -447.24033081 Ry
     Harris-Foulkes estimate   =    -447.24095164 Ry
     estimated scf accuracy    <       0.00605800 Ry

     iteration #  4     ecut=    50.00 Ry     beta= 0.70
     Davidson diagonalization with overlap
     ethr =  1.17E-05,  avg # of iterations =  2.9

     total cpu time spent up to now is      239.0 secs

     total energy              =    -447.24272783 Ry
     Harris-Foulkes estimate   =    -447.24284585 Ry
     estimated scf accuracy    <       0.00026134 Ry

     iteration #  5     ecut=    50.00 Ry     beta= 0.70
     Davidson diagonalization with overlap
     ethr =  5.03E-07,  avg # of iterations =  3.0

     total cpu time spent up to now is      291.8 secs

     total energy              =    -447.24276320 Ry
     Harris-Foulkes estimate   =    -447.24276596 Ry
     estimated scf accuracy    <       0.00001467 Ry

     iteration #  6     ecut=    50.00 Ry     beta= 0.70
     Davidson diagonalization with overlap
     ethr =  2.82E-08,  avg # of iterations =  3.1

     total cpu time spent up to now is      355.9 secs

     total energy              =    -447.24282225 Ry
     Harris-Foulkes estimate   =    -447.24282513 Ry
     estimated scf accuracy    <       0.00000684 Ry

     iteration #  7     ecut=    50.00 Ry     beta= 0.70
     Davidson diagonalization with overlap
     ethr =  1.32E-08,  avg # of iterations =  3.1

     total cpu time spent up to now is      412.0 secs

     total energy              =    -447.24282353 Ry
     Harris-Foulkes estimate   =    -447.24282405 Ry
     estimated scf accuracy    <       0.00000118 Ry

     iteration #  8     ecut=    50.00 Ry     beta= 0.70
     Davidson diagonalization with overlap
     ethr =  2.26E-09,  avg # of iterations =  2.8

     total cpu time spent up to now is      466.7 secs

     total energy              =    -447.24282369 Ry
     Harris-Foulkes estimate   =    -447.24282371 Ry
     estimated scf accuracy    <       0.00000006 Ry

     iteration #  9     ecut=    50.00 Ry     beta= 0.70
     Davidson diagonalization with overlap
     ethr =  1.21E-10,  avg # of iterations =  3.0

     total cpu time spent up to now is      530.8 secs

     total energy              =    -447.24282371 Ry
     Harris-Foulkes estimate   =    -447.24282372 Ry
     estimated scf accuracy    <       0.00000001 Ry

     iteration # 10     ecut=    50.00 Ry     beta= 0.70
     Davidson diagonalization with overlap
     ethr =  2.81E-11,  avg # of iterations =  3.0

     total cpu time spent up to now is      584.0 secs

     total energy              =    -447.24282371 Ry
     Harris-Foulkes estimate   =    -447.24282371 Ry
     estimated scf accuracy    <          2.1E-09 Ry

     iteration # 11     ecut=    50.00 Ry     beta= 0.70
     Davidson diagonalization with overlap
     ethr =  4.09E-12,  avg # of iterations =  3.0

     total cpu time spent up to now is      643.4 secs

     total energy              =    -447.24282371 Ry
     Harris-Foulkes estimate   =    -447.24282371 Ry
     estimated scf accuracy    <          4.9E-11 Ry

     iteration # 12     ecut=    50.00 Ry     beta= 0.70
     Davidson diagonalization with overlap
     ethr =  1.00E-13,  avg # of iterations =  2.4

     total cpu time spent up to now is      701.5 secs

     total energy              =    -447.24282371 Ry
     Harris-Foulkes estimate   =    -447.24282371 Ry
     estimated scf accuracy    <          1.0E-11 Ry

     iteration # 13     ecut=    50.00 Ry     beta= 0.70
     Davidson diagonalization with overlap
     ethr =  1.00E-13,  avg # of iterations =  1.0

     total cpu time spent up to now is      743.8 secs

     End of self-consistent calculation

     Number of k-points >= 100: set verbosity='high' to print the bands.

     highest occupied level (ev):     9.0910

!    total energy              =    -447.24282371 Ry
     Harris-Foulkes estimate   =    -447.24282371 Ry
     estimated scf accuracy    <          6.3E-13 Ry

     The total energy is the sum of the following terms:

     one-electron contribution =    -123.43396705 Ry
     hartree contribution      =     100.65916768 Ry
     xc contribution           =    -121.98668853 Ry
     ewald contribution        =    -302.48133581 Ry

     convergence has been achieved in  13 iterations

     Forces acting on atoms (cartesian axes, Ry/au):

     atom    1 type  1   force =    -0.00096035   -0.00096035    0.00000000
     atom    2 type  1   force =    -0.00126289   -0.00126289    0.00000000
     atom    3 type  2   force =     0.00083539   -0.00090899    0.00000000
     atom    4 type  2   force =    -0.00090899    0.00083539    0.00000000
     atom    5 type  2   force =     0.00139017    0.00139017    0.00000000
     atom    6 type  2   force =     0.00090667    0.00090667    0.00000000

     Total force =     0.003687     Total SCF correction =     0.000002


     Computing stress (Cartesian axis) and pressure

          total   stress  (Ry/bohr**3)                   (kbar)     P= -621.38
  -0.00426951   0.00000082  -0.00000000       -628.07      0.12     -0.00
   0.00000082  -0.00426951   0.00000000          0.12   -628.07      0.00
  -0.00000000   0.00000000  -0.00413321         -0.00      0.00   -608.02


     BFGS Geometry Optimization

     number of scf cycles    =   1
     number of bfgs steps    =   0

     enthalpy new            =    -447.2428237134 Ry

     new trust radius        =       0.4804659345 bohr
     new conv_thr            =            1.0E-12 Ry

     new unit-cell volume =    362.42699 a.u.^3 (    53.70614 Ang^3 )
     density =      9.31947 g/cm^3

CELL_PARAMETERS (alat=  9.11000000)
   0.893262348   0.000000000   0.000000000
   0.000000000   0.893262348   0.000000000
   0.000000000   0.000000000   0.600768770

ATOMIC_POSITIONS (crystal)
Sn      -0.000105417  -0.000105417   0.000000000
Sn       0.499861374   0.499861374   0.500000000
O        0.806091700   0.192900221   0.500000000
O        0.192900221   0.806091700   0.500000000
O        0.306152598   0.306152598   0.000000000
O        0.693099525   0.693099525   0.000000000



     Writing output data file SnO2.save
     NEW-OLD atomic charge density approx. for the potential

     Check: negative/imaginary core charge=   -0.000024    0.000000
     extrapolated charge   31.32160, renormalised to   52.00000

     total cpu time spent up to now is      764.8 secs

     Self-consistent Calculation

     iteration #  1     ecut=    50.00 Ry     beta= 0.70
     Davidson diagonalization with overlap
     ethr =  1.00E-06,  avg # of iterations =  9.8

     total cpu time spent up to now is      908.7 secs

     total energy              =    -434.67544244 Ry
     Harris-Foulkes estimate   =    -476.90726589 Ry
     estimated scf accuracy    <      13.67891037 Ry

     iteration #  2     ecut=    50.00 Ry     beta= 0.70
     Davidson diagonalization with overlap
     ethr =  1.00E-02,  avg # of iterations =  3.0

     total cpu time spent up to now is      979.9 secs

     total energy              =    -445.99982189 Ry
     Harris-Foulkes estimate   =    -450.73053386 Ry
     estimated scf accuracy    <       9.97597233 Ry

     iteration #  3     ecut=    50.00 Ry     beta= 0.70
     Davidson diagonalization with overlap
     ethr =  1.00E-02,  avg # of iterations =  2.0

     total cpu time spent up to now is     1035.4 secs

     total energy              =    -447.03139720 Ry
     Harris-Foulkes estimate   =    -447.25647292 Ry
     estimated scf accuracy    <       0.49727878 Ry

     iteration #  4     ecut=    50.00 Ry     beta= 0.70
     Davidson diagonalization with overlap
     ethr =  9.56E-04,  avg # of iterations =  2.0

     total cpu time spent up to now is     1084.2 secs

     total energy              =    -447.01762130 Ry
     Harris-Foulkes estimate   =    -447.08286181 Ry
     estimated scf accuracy    <       0.12147607 Ry

     iteration #  5     ecut=    50.00 Ry     beta= 0.70
     Davidson diagonalization with overlap
     ethr =  2.34E-04,  avg # of iterations =  2.0

     total cpu time spent up to now is     1140.3 secs

     total energy              =    -447.04616146 Ry
     Harris-Foulkes estimate   =    -447.04623510 Ry
     estimated scf accuracy    <       0.00063427 Ry

     iteration #  6     ecut=    50.00 Ry     beta= 0.70
     Davidson diagonalization with overlap
     ethr =  1.22E-06,  avg # of iterations =  2.5

     total cpu time spent up to now is     1201.6 secs

     total energy              =    -447.04630508 Ry
     Harris-Foulkes estimate   =    -447.04648495 Ry
     estimated scf accuracy    <       0.00036936 Ry

     iteration #  7     ecut=    50.00 Ry     beta= 0.70
     Davidson diagonalization with overlap
     ethr =  7.10E-07,  avg # of iterations =  2.0

     total cpu time spent up to now is     1252.3 secs

     total energy              =    -447.04633108 Ry
     Harris-Foulkes estimate   =    -447.04634372 Ry
     estimated scf accuracy    <       0.00002458 Ry

     iteration #  8     ecut=    50.00 Ry     beta= 0.70
     Davidson diagonalization with overlap
     ethr =  4.73E-08,  avg # of iterations =  2.7

     total cpu time spent up to now is     1313.6 secs

     total energy              =    -447.04633584 Ry
     Harris-Foulkes estimate   =    -447.04633620 Ry
     estimated scf accuracy    <       0.00000084 Ry

     iteration #  9     ecut=    50.00 Ry     beta= 0.70
     Davidson diagonalization with overlap
     ethr =  1.62E-09,  avg # of iterations =  2.9

     total cpu time spent up to now is     1366.4 secs

     total energy              =    -447.04633597 Ry
     Harris-Foulkes estimate   =    -447.04633600 Ry
     estimated scf accuracy    <       0.00000009 Ry

     iteration # 10     ecut=    50.00 Ry     beta= 0.70
     Davidson diagonalization with overlap
     ethr =  1.74E-10,  avg # of iterations =  2.0

     total cpu time spent up to now is     1423.8 secs

     total energy              =    -447.04633598 Ry
     Harris-Foulkes estimate   =    -447.04633599 Ry
     estimated scf accuracy    <          5.6E-09 Ry

     iteration # 11     ecut=    50.00 Ry     beta= 0.70
     Davidson diagonalization with overlap
     ethr =  1.07E-11,  avg # of iterations =  2.0

     total cpu time spent up to now is     1480.2 secs

     total energy              =    -447.04633599 Ry
     Harris-Foulkes estimate   =    -447.04633599 Ry
     estimated scf accuracy    <          3.4E-10 Ry

     iteration # 12     ecut=    50.00 Ry     beta= 0.70
     Davidson diagonalization with overlap
     ethr =  6.50E-13,  avg # of iterations =  3.0

     total cpu time spent up to now is     1542.3 secs

     total energy              =    -447.04633599 Ry
     Harris-Foulkes estimate   =    -447.04633599 Ry
     estimated scf accuracy    <          9.4E-11 Ry

     iteration # 13     ecut=    50.00 Ry     beta= 0.70
     Davidson diagonalization with overlap
     ethr =  1.80E-13,  avg # of iterations =  2.0

     total cpu time spent up to now is     1596.1 secs

     total energy              =    -447.04633599 Ry
     Harris-Foulkes estimate   =    -447.04633599 Ry
     estimated scf accuracy    <          9.2E-12 Ry

     iteration # 14     ecut=    50.00 Ry     beta= 0.70
     Davidson diagonalization with overlap
     ethr =  1.00E-13,  avg # of iterations =  1.6

     total cpu time spent up to now is     1639.6 secs

     End of self-consistent calculation

     Number of k-points >= 100: set verbosity='high' to print the bands.

     highest occupied level (ev):    14.7500

!    total energy              =    -447.04633599 Ry
     Harris-Foulkes estimate   =    -447.04633599 Ry
     estimated scf accuracy    <          1.8E-13 Ry

     The total energy is the sum of the following terms:

     one-electron contribution =     -71.20541177 Ry
     hartree contribution      =      86.41327376 Ry
     xc contribution           =    -123.93055509 Ry
     ewald contribution        =    -338.32364288 Ry

     convergence has been achieved in  14 iterations

     Forces acting on atoms (cartesian axes, Ry/au):

     atom    1 type  1   force =    -0.00199621   -0.00199621    0.00000000
     atom    2 type  1   force =    -0.00122297   -0.00122297    0.00000000
     atom    3 type  2   force =    -0.05148480    0.05088449    0.00000000
     atom    4 type  2   force =     0.05088449   -0.05148480    0.00000000
     atom    5 type  2   force =    -0.04821995   -0.04821995    0.00000000
     atom    6 type  2   force =     0.05203944    0.05203944    0.00000000

     Total force =     0.143378     Total SCF correction =     0.000001


     Computing stress (Cartesian axis) and pressure

          total   stress  (Ry/bohr**3)                   (kbar)     P= 1309.11
   0.00799917   0.00000256   0.00000000       1176.72      0.38      0.00
   0.00000256   0.00799917   0.00000000          0.38   1176.72      0.00
   0.00000000   0.00000000   0.01069915          0.00      0.00   1573.90


     number of scf cycles    =   2
     number of bfgs steps    =   1

     enthalpy old            =    -447.2428237134 Ry
     enthalpy new            =    -447.0463359856 Ry

     CASE: enthalpy_new > enthalpy_old

     new trust radius        =       0.1763731184 bohr
     new conv_thr            =            1.0E-12 Ry

     new unit-cell volume =    446.85839 a.u.^3 (    66.21758 Ang^3 )
     density =      7.55861 g/cm^3

CELL_PARAMETERS (alat=  9.11000000)
   0.958621841   0.000000000   0.000000000
   0.000000000   0.958621841   0.000000000
   0.000000000   0.000000000   0.643161665

ATOMIC_POSITIONS (crystal)
Sn      -0.000040866  -0.000040866   0.000000000
Sn       0.499946260   0.499946260   0.500000000
O        0.806035549   0.192961319   0.500000000
O        0.192961319   0.806035549   0.500000000
O        0.306059156   0.306059156   0.000000000
O        0.693038582   0.693038582   0.000000000



     Writing output data file SnO2.save
     NEW-OLD atomic charge density approx. for the potential

     Check: negative/imaginary core charge=   -0.000084    0.000000

     negative rho (up, down):  2.926E-06 0.000E+00
     extrapolated charge   61.82452, renormalised to   52.00000

     total cpu time spent up to now is     1660.5 secs

     Self-consistent Calculation

     iteration #  1     ecut=    50.00 Ry     beta= 0.70
     Davidson diagonalization with overlap
     ethr =  1.00E-06,  avg # of iterations =  7.7

     negative rho (up, down):  6.380E-07 0.000E+00

     total cpu time spent up to now is     1783.8 secs

     total energy              =    -441.60837620 Ry
     Harris-Foulkes estimate   =    -428.08859047 Ry
     estimated scf accuracy    <       3.13527756 Ry

     iteration #  2     ecut=    50.00 Ry     beta= 0.70
     Davidson diagonalization with overlap
     ethr =  6.03E-03,  avg # of iterations =  4.0

     negative rho (up, down):  2.179E-07 0.000E+00

     total cpu time spent up to now is     1865.8 secs

     total energy              =    -447.48714166 Ry
     Harris-Foulkes estimate   =    -450.24047012 Ry
     estimated scf accuracy    <       7.20186290 Ry

     iteration #  3     ecut=    50.00 Ry     beta= 0.70
     Davidson diagonalization with overlap
     ethr =  6.03E-03,  avg # of iterations =  2.0

     total cpu time spent up to now is     1919.0 secs

     total energy              =    -447.64009031 Ry
     Harris-Foulkes estimate   =    -447.97095133 Ry
     estimated scf accuracy    <       1.33857028 Ry

     iteration #  4     ecut=    50.00 Ry     beta= 0.70
     Davidson diagonalization with overlap
     ethr =  2.57E-03,  avg # of iterations =  1.0

     total cpu time spent up to now is     1961.4 secs

     total energy              =    -447.38761869 Ry
     Harris-Foulkes estimate   =    -447.66376397 Ry
     estimated scf accuracy    <       0.72838530 Ry

     iteration #  5     ecut=    50.00 Ry     beta= 0.70
     Davidson diagonalization with overlap
     ethr =  1.40E-03,  avg # of iterations =  2.0

     total cpu time spent up to now is     2006.3 secs

     total energy              =    -447.38253102 Ry
     Harris-Foulkes estimate   =    -447.43072138 Ry
     estimated scf accuracy    <       0.15034945 Ry

     iteration #  6     ecut=    50.00 Ry     beta= 0.70
     Davidson diagonalization with overlap
     ethr =  2.89E-04,  avg # of iterations =  2.0

     total cpu time spent up to now is     2052.9 secs

     total energy              =    -447.37848325 Ry
     Harris-Foulkes estimate   =    -447.39271010 Ry
     estimated scf accuracy    <       0.04052126 Ry

     iteration #  7     ecut=    50.00 Ry     beta= 0.70
     Davidson diagonalization with overlap
     ethr =  7.79E-05,  avg # of iterations =  1.9

     total cpu time spent up to now is     2097.4 secs

     total energy              =    -447.37695718 Ry
     Harris-Foulkes estimate   =    -447.38063713 Ry
     estimated scf accuracy    <       0.01218129 Ry

     iteration #  8     ecut=    50.00 Ry     beta= 0.70
     Davidson diagonalization with overlap
     ethr =  2.34E-05,  avg # of iterations =  2.0

     total cpu time spent up to now is     2142.4 secs

     total energy              =    -447.37609255 Ry
     Harris-Foulkes estimate   =    -447.37773386 Ry
     estimated scf accuracy    <       0.00328076 Ry

     iteration #  9     ecut=    50.00 Ry     beta= 0.70
     Davidson diagonalization with overlap
     ethr =  6.31E-06,  avg # of iterations =  2.1

     total cpu time spent up to now is     2201.8 secs

     total energy              =    -447.37666036 Ry
     Harris-Foulkes estimate   =    -447.37667016 Ry
     estimated scf accuracy    <       0.00002951 Ry

     iteration # 10     ecut=    50.00 Ry     beta= 0.70
     Davidson diagonalization with overlap
     ethr =  5.67E-08,  avg # of iterations =  3.0

     total cpu time spent up to now is     2258.1 secs

     total energy              =    -447.37666438 Ry
     Harris-Foulkes estimate   =    -447.37666714 Ry
     estimated scf accuracy    <       0.00000580 Ry

     iteration # 11     ecut=    50.00 Ry     beta= 0.70
     Davidson diagonalization with overlap
     ethr =  1.12E-08,  avg # of iterations =  2.1

     total cpu time spent up to now is     2316.2 secs

     total energy              =    -447.37666522 Ry
     Harris-Foulkes estimate   =    -447.37666534 Ry
     estimated scf accuracy    <       0.00000030 Ry

     iteration # 12     ecut=    50.00 Ry     beta= 0.70
     Davidson diagonalization with overlap
     ethr =  5.68E-10,  avg # of iterations =  2.8

     total cpu time spent up to now is     2376.3 secs

     total energy              =    -447.37666527 Ry
     Harris-Foulkes estimate   =    -447.37666528 Ry
     estimated scf accuracy    <       0.00000005 Ry

     iteration # 13     ecut=    50.00 Ry     beta= 0.70
     Davidson diagonalization with overlap
     ethr =  9.46E-11,  avg # of iterations =  2.0

     total cpu time spent up to now is     2427.2 secs

     total energy              =    -447.37666527 Ry
     Harris-Foulkes estimate   =    -447.37666528 Ry
     estimated scf accuracy    <       0.00000002 Ry

     iteration # 14     ecut=    50.00 Ry     beta= 0.70
     Davidson diagonalization with overlap
     ethr =  4.14E-11,  avg # of iterations =  2.0

     total cpu time spent up to now is     2479.3 secs

     total energy              =    -447.37666527 Ry
     Harris-Foulkes estimate   =    -447.37666527 Ry
     estimated scf accuracy    <          2.1E-09 Ry

     iteration # 15     ecut=    50.00 Ry     beta= 0.70
     Davidson diagonalization with overlap
     ethr =  3.98E-12,  avg # of iterations =  2.6

     total cpu time spent up to now is     2532.9 secs

     total energy              =    -447.37666527 Ry
     Harris-Foulkes estimate   =    -447.37666527 Ry
     estimated scf accuracy    <          3.0E-10 Ry

     iteration # 16     ecut=    50.00 Ry     beta= 0.70
     Davidson diagonalization with overlap
     ethr =  5.73E-13,  avg # of iterations =  2.0

     total cpu time spent up to now is     2579.3 secs

     total energy              =    -447.37666527 Ry
     Harris-Foulkes estimate   =    -447.37666527 Ry
     estimated scf accuracy    <          5.1E-11 Ry

     iteration # 17     ecut=    50.00 Ry     beta= 0.70
     Davidson diagonalization with overlap
     ethr =  1.00E-13,  avg # of iterations =  2.0

     total cpu time spent up to now is     2633.3 secs

     total energy              =    -447.37666527 Ry
     Harris-Foulkes estimate   =    -447.37666527 Ry
     estimated scf accuracy    <          2.8E-12 Ry

     iteration # 18     ecut=    50.00 Ry     beta= 0.70
     Davidson diagonalization with overlap
     ethr =  1.00E-13,  avg # of iterations =  1.0

     total cpu time spent up to now is     2675.5 secs

     End of self-consistent calculation

     Number of k-points >= 100: set verbosity='high' to print the bands.

     highest occupied level (ev):    11.0138

!    total energy              =    -447.37666527 Ry
     Harris-Foulkes estimate   =    -447.37666527 Ry
     estimated scf accuracy    <          4.4E-13 Ry

     The total energy is the sum of the following terms:

     one-electron contribution =    -104.57587913 Ry
     hartree contribution      =      95.30704844 Ry
     xc contribution           =    -122.67192705 Ry
     ewald contribution        =    -315.43590753 Ry

     convergence has been achieved in  18 iterations

     Forces acting on atoms (cartesian axes, Ry/au):

     atom    1 type  1   force =    -0.00152213   -0.00152213    0.00000000
     atom    2 type  1   force =    -0.00140400   -0.00140400    0.00000000
     atom    3 type  2   force =    -0.01467409    0.01446731    0.00000000
     atom    4 type  2   force =     0.01446731   -0.01467409    0.00000000
     atom    5 type  2   force =    -0.01295139   -0.01295139    0.00000000
     atom    6 type  2   force =     0.01608430    0.01608430    0.00000000

     Total force =     0.041361     Total SCF correction =     0.000001


     Computing stress (Cartesian axis) and pressure

          total   stress  (Ry/bohr**3)                   (kbar)     P=  -13.18
  -0.00032886   0.00000069   0.00000000        -48.38      0.10      0.00
   0.00000069  -0.00032886   0.00000000          0.10    -48.38      0.00
   0.00000000   0.00000000   0.00038884          0.00      0.00     57.20


     number of scf cycles    =   3
     number of bfgs steps    =   1

     enthalpy old            =    -447.2428237134 Ry
     enthalpy new            =    -447.3766652743 Ry

     CASE: enthalpy_new < enthalpy_old

     new trust radius        =       0.0423819351 bohr
     new conv_thr            =            1.0E-12 Ry

     new unit-cell volume =    444.57762 a.u.^3 (    65.87961 Ang^3 )
     density =      7.59739 g/cm^3

CELL_PARAMETERS (alat=  9.11000000)
   0.951415421   0.000000000   0.000000000
   0.000000000   0.951415421   0.000000000
   0.000000000   0.000000000   0.649609086

ATOMIC_POSITIONS (crystal)
Sn      -0.000203894  -0.000203894   0.000000000
Sn       0.499796085   0.499796085   0.500000000
O        0.804458497   0.194516193   0.500000000
O        0.194516193   0.804458497   0.500000000
O        0.304666899   0.304666899   0.000000000
O        0.694766221   0.694766221   0.000000000



     Writing output data file SnO2.save
     NEW-OLD atomic charge density approx. for the potential

     Check: negative/imaginary core charge=   -0.000082    0.000000
     extrapolated charge   51.73324, renormalised to   52.00000

     total cpu time spent up to now is     2696.3 secs

     Self-consistent Calculation

     iteration #  1     ecut=    50.00 Ry     beta= 0.70
     Davidson diagonalization with overlap
     ethr =  1.00E-06,  avg # of iterations =  5.7

     total cpu time spent up to now is     2794.7 secs

     total energy              =    -447.37619811 Ry
     Harris-Foulkes estimate   =    -447.89078078 Ry
     estimated scf accuracy    <       0.00188471 Ry

     iteration #  2     ecut=    50.00 Ry     beta= 0.70
     Davidson diagonalization with overlap
     ethr =  3.62E-06,  avg # of iterations =  4.0

     total cpu time spent up to now is     2869.3 secs

     total energy              =    -447.37918939 Ry
     Harris-Foulkes estimate   =    -447.38074569 Ry
     estimated scf accuracy    <       0.00415305 Ry

     iteration #  3     ecut=    50.00 Ry     beta= 0.70
     Davidson diagonalization with overlap
     ethr =  3.62E-06,  avg # of iterations =  2.0

     total cpu time spent up to now is     2922.4 secs

     total energy              =    -447.37932299 Ry
     Harris-Foulkes estimate   =    -447.37951949 Ry
     estimated scf accuracy    <       0.00060689 Ry

     iteration #  4     ecut=    50.00 Ry     beta= 0.70
     Davidson diagonalization with overlap
     ethr =  1.17E-06,  avg # of iterations =  1.0

     total cpu time spent up to now is     2964.7 secs

     total energy              =    -447.37920718 Ry
     Harris-Foulkes estimate   =    -447.37934718 Ry
     estimated scf accuracy    <       0.00024450 Ry

     iteration #  5     ecut=    50.00 Ry     beta= 0.70
     Davidson diagonalization with overlap
     ethr =  4.70E-07,  avg # of iterations =  2.0

     total cpu time spent up to now is     3023.9 secs

     total energy              =    -447.37926701 Ry
     Harris-Foulkes estimate   =    -447.37926971 Ry
     estimated scf accuracy    <       0.00000488 Ry

     iteration #  6     ecut=    50.00 Ry     beta= 0.70
     Davidson diagonalization with overlap
     ethr =  9.39E-09,  avg # of iterations =  2.6

     total cpu time spent up to now is     3078.5 secs

     total energy              =    -447.37926830 Ry
     Harris-Foulkes estimate   =    -447.37926832 Ry
     estimated scf accuracy    <       0.00000004 Ry

     iteration #  7     ecut=    50.00 Ry     beta= 0.70
     Davidson diagonalization with overlap
     ethr =  8.20E-11,  avg # of iterations =  3.8

     total cpu time spent up to now is     3144.6 secs

     total energy              =    -447.37926832 Ry
     Harris-Foulkes estimate   =    -447.37926833 Ry
     estimated scf accuracy    <       0.00000001 Ry

     iteration #  8     ecut=    50.00 Ry     beta= 0.70
     Davidson diagonalization with overlap
     ethr =  2.49E-11,  avg # of iterations =  3.0

     total cpu time spent up to now is     3199.8 secs

     total energy              =    -447.37926832 Ry
     Harris-Foulkes estimate   =    -447.37926832 Ry
     estimated scf accuracy    <          6.0E-10 Ry

     iteration #  9     ecut=    50.00 Ry     beta= 0.70
     Davidson diagonalization with overlap
     ethr =  1.16E-12,  avg # of iterations =  3.0

     total cpu time spent up to now is     3255.5 secs

     total energy              =    -447.37926832 Ry
     Harris-Foulkes estimate   =    -447.37926832 Ry
     estimated scf accuracy    <          1.0E-10 Ry

     iteration # 10     ecut=    50.00 Ry     beta= 0.70
     Davidson diagonalization with overlap
     ethr =  1.92E-13,  avg # of iterations =  2.2

     total cpu time spent up to now is     3308.3 secs

     total energy              =    -447.37926832 Ry
     Harris-Foulkes estimate   =    -447.37926832 Ry
     estimated scf accuracy    <          8.7E-12 Ry

     iteration # 11     ecut=    50.00 Ry     beta= 0.70
     Davidson diagonalization with overlap
     ethr =  1.00E-13,  avg # of iterations =  1.4

     total cpu time spent up to now is     3351.9 secs

     End of self-consistent calculation

     Number of k-points >= 100: set verbosity='high' to print the bands.

     highest occupied level (ev):    11.1024

!    total energy              =    -447.37926832 Ry
     Harris-Foulkes estimate   =    -447.37926832 Ry
     estimated scf accuracy    <          7.9E-13 Ry

     The total energy is the sum of the following terms:

     one-electron contribution =    -102.43402701 Ry
     hartree contribution      =      94.42455854 Ry
     xc contribution           =    -122.67916406 Ry
     ewald contribution        =    -316.69063580 Ry

     convergence has been achieved in  11 iterations

     Forces acting on atoms (cartesian axes, Ry/au):

     atom    1 type  1   force =    -0.00034003   -0.00034003    0.00000000
     atom    2 type  1   force =    -0.00012461   -0.00012461    0.00000000
     atom    3 type  2   force =    -0.00112085    0.00126220    0.00000000
     atom    4 type  2   force =     0.00126220   -0.00112085    0.00000000
     atom    5 type  2   force =    -0.00099087   -0.00099087    0.00000000
     atom    6 type  2   force =     0.00131416    0.00131416    0.00000000

     Total force =     0.003373     Total SCF correction =     0.000001


     Computing stress (Cartesian axis) and pressure

          total   stress  (Ry/bohr**3)                   (kbar)     P=   -1.18
   0.00002511   0.00000067   0.00000000          3.69      0.10      0.00
   0.00000067   0.00002511   0.00000000          0.10      3.69      0.00
   0.00000000   0.00000000  -0.00007433          0.00      0.00    -10.94


     number of scf cycles    =   4
     number of bfgs steps    =   2

     enthalpy old            =    -447.3766652743 Ry
     enthalpy new            =    -447.3792683214 Ry

     CASE: enthalpy_new < enthalpy_old

     new trust radius        =       0.0058153610 bohr
     new conv_thr            =            1.0E-12 Ry

     new unit-cell volume =    444.54228 a.u.^3 (    65.87437 Ang^3 )
     density =      7.59799 g/cm^3

CELL_PARAMETERS (alat=  9.11000000)
   0.952034278   0.000000000   0.000000000
   0.000000000   0.952034278   0.000000000
   0.000000000   0.000000000   0.648713257

ATOMIC_POSITIONS (crystal)
Sn      -0.000238697  -0.000238697   0.000000000
Sn       0.499782558   0.499782558   0.500000000
O        0.804332684   0.194655640   0.500000000
O        0.194655640   0.804332684   0.500000000
O        0.304555595   0.304555595   0.000000000
O        0.694912221   0.694912221   0.000000000



     Writing output data file SnO2.save
     NEW-OLD atomic charge density approx. for the potential

     Check: negative/imaginary core charge=   -0.000082    0.000000
     extrapolated charge   51.99587, renormalised to   52.00000

     total cpu time spent up to now is     3373.0 secs

     Self-consistent Calculation

     iteration #  1     ecut=    50.00 Ry     beta= 0.70
     Davidson diagonalization with overlap
     ethr =  1.00E-06,  avg # of iterations =  3.0

     Threshold (ethr) on eigenvalues was too large:
     Diagonalizing with lowered threshold

     Davidson diagonalization with overlap
     ethr =  6.38E-09,  avg # of iterations =  3.0

     total cpu time spent up to now is     3497.0 secs

     total energy              =    -447.37931327 Ry
     Harris-Foulkes estimate   =    -447.38725223 Ry
     estimated scf accuracy    <       0.00000346 Ry

     iteration #  2     ecut=    50.00 Ry     beta= 0.70
     Davidson diagonalization with overlap
     ethr =  6.65E-09,  avg # of iterations =  3.0

     total cpu time spent up to now is     3562.2 secs

     total energy              =    -447.37931434 Ry
     Harris-Foulkes estimate   =    -447.37931521 Ry
     estimated scf accuracy    <       0.00000174 Ry

     iteration #  3     ecut=    50.00 Ry     beta= 0.70
     Davidson diagonalization with overlap
     ethr =  3.34E-09,  avg # of iterations =  2.0

     total cpu time spent up to now is     3616.1 secs

     total energy              =    -447.37931467 Ry
     Harris-Foulkes estimate   =    -447.37931469 Ry
     estimated scf accuracy    <       0.00000007 Ry

     iteration #  4     ecut=    50.00 Ry     beta= 0.70
     Davidson diagonalization with overlap
     ethr =  1.28E-10,  avg # of iterations =  2.0

     total cpu time spent up to now is     3676.1 secs

     total energy              =    -447.37931469 Ry
     Harris-Foulkes estimate   =    -447.37931469 Ry
     estimated scf accuracy    <          6.3E-09 Ry

     iteration #  5     ecut=    50.00 Ry     beta= 0.70
     Davidson diagonalization with overlap
     ethr =  1.21E-11,  avg # of iterations =  2.2

     total cpu time spent up to now is     3731.2 secs

     total energy              =    -447.37931469 Ry
     Harris-Foulkes estimate   =    -447.37931469 Ry
     estimated scf accuracy    <          5.4E-10 Ry

     iteration #  6     ecut=    50.00 Ry     beta= 0.70
     Davidson diagonalization with overlap
     ethr =  1.04E-12,  avg # of iterations =  3.2

     total cpu time spent up to now is     3795.5 secs

     total energy              =    -447.37931469 Ry
     Harris-Foulkes estimate   =    -447.37931469 Ry
     estimated scf accuracy    <          4.9E-10 Ry

     iteration #  7     ecut=    50.00 Ry     beta= 0.70
     Davidson diagonalization with overlap
     ethr =  9.36E-13,  avg # of iterations =  2.9

     total cpu time spent up to now is     3848.7 secs

     total energy              =    -447.37931469 Ry
     Harris-Foulkes estimate   =    -447.37931469 Ry
     estimated scf accuracy    <          6.5E-12 Ry

     iteration #  8     ecut=    50.00 Ry     beta= 0.70
     Davidson diagonalization with overlap
     ethr =  1.00E-13,  avg # of iterations =  2.0

     total cpu time spent up to now is     3895.8 secs

     total energy              =    -447.37931469 Ry
     Harris-Foulkes estimate   =    -447.37931469 Ry
     estimated scf accuracy    <          2.4E-12 Ry

     iteration #  9     ecut=    50.00 Ry     beta= 0.70
     Davidson diagonalization with overlap
     ethr =  1.00E-13,  avg # of iterations =  1.0

     total cpu time spent up to now is     3938.0 secs

     End of self-consistent calculation

     Number of k-points >= 100: set verbosity='high' to print the bands.

     highest occupied level (ev):    11.1045

!    total energy              =    -447.37931469 Ry
     Harris-Foulkes estimate   =    -447.37931469 Ry
     estimated scf accuracy    <          1.2E-13 Ry

     The total energy is the sum of the following terms:

     one-electron contribution =    -102.51246790 Ry
     hartree contribution      =      94.46341182 Ry
     xc contribution           =    -122.68099305 Ry
     ewald contribution        =    -316.64926556 Ry

     convergence has been achieved in   9 iterations

     Forces acting on atoms (cartesian axes, Ry/au):

     atom    1 type  1   force =    -0.00006379   -0.00006379    0.00000000
     atom    2 type  1   force =    -0.00005928   -0.00005928    0.00000000
     atom    3 type  2   force =    -0.00093019    0.00110239    0.00000000
     atom    4 type  2   force =     0.00110239   -0.00093019    0.00000000
     atom    5 type  2   force =    -0.00103656   -0.00103656    0.00000000
     atom    6 type  2   force =     0.00098742    0.00098742    0.00000000

     Total force =     0.002877     Total SCF correction =     0.000001


     Computing stress (Cartesian axis) and pressure

          total   stress  (Ry/bohr**3)                   (kbar)     P=    0.27
   0.00000872   0.00000058   0.00000000          1.28      0.09      0.00
   0.00000058   0.00000872   0.00000000          0.09      1.28      0.00
   0.00000000   0.00000000  -0.00001203          0.00      0.00     -1.77


     number of scf cycles    =   5
     number of bfgs steps    =   3

     enthalpy old            =    -447.3792683214 Ry
     enthalpy new            =    -447.3793146870 Ry

     CASE: enthalpy_new < enthalpy_old

     new trust radius        =       0.0023456745 bohr
     new conv_thr            =            1.0E-12 Ry

     new unit-cell volume =    444.55776 a.u.^3 (    65.87666 Ang^3 )
     density =      7.59773 g/cm^3

CELL_PARAMETERS (alat=  9.11000000)
   0.952315757   0.000000000   0.000000000
   0.000000000   0.952315757   0.000000000
   0.000000000   0.000000000   0.648352401

ATOMIC_POSITIONS (crystal)
Sn      -0.000253111  -0.000253111   0.000000000
Sn       0.499771302   0.499771302   0.500000000
O        0.804170684   0.194844977   0.500000000
O        0.194844977   0.804170684   0.500000000
O        0.304380196   0.304380196   0.000000000
O        0.695085953   0.695085953   0.000000000



     Writing output data file SnO2.save
     NEW-OLD atomic charge density approx. for the potential

     Check: negative/imaginary core charge=   -0.000082    0.000000
     extrapolated charge   52.00181, renormalised to   52.00000

     total cpu time spent up to now is     3958.8 secs

     Self-consistent Calculation

     iteration #  1     ecut=    50.00 Ry     beta= 0.70
     Davidson diagonalization with overlap
     ethr =  1.00E-06,  avg # of iterations =  3.0

     Threshold (ethr) on eigenvalues was too large:
     Diagonalizing with lowered threshold

     Davidson diagonalization with overlap
     ethr =  6.26E-09,  avg # of iterations =  2.6

     total cpu time spent up to now is     4078.2 secs

     total energy              =    -447.37932379 Ry
     Harris-Foulkes estimate   =    -447.37584910 Ry
     estimated scf accuracy    <       0.00000334 Ry

     iteration #  2     ecut=    50.00 Ry     beta= 0.70
     Davidson diagonalization with overlap
     ethr =  6.42E-09,  avg # of iterations =  2.1

     total cpu time spent up to now is     4134.3 secs

     total energy              =    -447.37932455 Ry
     Harris-Foulkes estimate   =    -447.37932467 Ry
     estimated scf accuracy    <       0.00000024 Ry

     iteration #  3     ecut=    50.00 Ry     beta= 0.70
     Davidson diagonalization with overlap
     ethr =  4.64E-10,  avg # of iterations =  2.1

     total cpu time spent up to now is     4188.1 secs

     total energy              =    -447.37932460 Ry
     Harris-Foulkes estimate   =    -447.37932462 Ry
     estimated scf accuracy    <       0.00000003 Ry

     iteration #  4     ecut=    50.00 Ry     beta= 0.70
     Davidson diagonalization with overlap
     ethr =  5.67E-11,  avg # of iterations =  3.0

     total cpu time spent up to now is     4244.8 secs

     total energy              =    -447.37932461 Ry
     Harris-Foulkes estimate   =    -447.37932461 Ry
     estimated scf accuracy    <          4.9E-09 Ry

     iteration #  5     ecut=    50.00 Ry     beta= 0.70
     Davidson diagonalization with overlap
     ethr =  9.40E-12,  avg # of iterations =  3.0

     total cpu time spent up to now is     4299.7 secs

     total energy              =    -447.37932461 Ry
     Harris-Foulkes estimate   =    -447.37932461 Ry
     estimated scf accuracy    <          1.3E-10 Ry

     iteration #  6     ecut=    50.00 Ry     beta= 0.70
     Davidson diagonalization with overlap
     ethr =  2.41E-13,  avg # of iterations =  3.7

     total cpu time spent up to now is     4367.6 secs

     total energy              =    -447.37932461 Ry
     Harris-Foulkes estimate   =    -447.37932461 Ry
     estimated scf accuracy    <          1.2E-10 Ry

     iteration #  7     ecut=    50.00 Ry     beta= 0.70
     Davidson diagonalization with overlap
     ethr =  2.28E-13,  avg # of iterations =  3.0

     total cpu time spent up to now is     4420.5 secs

     total energy              =    -447.37932461 Ry
     Harris-Foulkes estimate   =    -447.37932461 Ry
     estimated scf accuracy    <          2.0E-12 Ry

     iteration #  8     ecut=    50.00 Ry     beta= 0.70
     Davidson diagonalization with overlap
     ethr =  1.00E-13,  avg # of iterations =  1.0

     total cpu time spent up to now is     4462.6 secs

     End of self-consistent calculation

     Number of k-points >= 100: set verbosity='high' to print the bands.

     highest occupied level (ev):    11.1047

!    total energy              =    -447.37932461 Ry
     Harris-Foulkes estimate   =    -447.37932461 Ry
     estimated scf accuracy    <          1.4E-13 Ry

     The total energy is the sum of the following terms:

     one-electron contribution =    -102.53363442 Ry
     hartree contribution      =      94.47086503 Ry
     xc contribution           =    -122.68101138 Ry
     ewald contribution        =    -316.63554385 Ry

     convergence has been achieved in   8 iterations

     Forces acting on atoms (cartesian axes, Ry/au):

     atom    1 type  1   force =     0.00000130    0.00000130    0.00000000
     atom    2 type  1   force =    -0.00003945   -0.00003945    0.00000000
     atom    3 type  2   force =    -0.00016327    0.00032981    0.00000000
     atom    4 type  2   force =     0.00032981   -0.00016327    0.00000000
     atom    5 type  2   force =    -0.00031531   -0.00031531    0.00000000
     atom    6 type  2   force =     0.00018692    0.00018692    0.00000000

     Total force =     0.000737     Total SCF correction =     0.000001


     Computing stress (Cartesian axis) and pressure

          total   stress  (Ry/bohr**3)                   (kbar)     P=    0.29
   0.00000075   0.00000055   0.00000000          0.11      0.08      0.00
   0.00000055   0.00000075  -0.00000000          0.08      0.11     -0.00
   0.00000000   0.00000000   0.00000433          0.00      0.00      0.64


     number of scf cycles    =   6
     number of bfgs steps    =   4

     enthalpy old            =    -447.3793146870 Ry
     enthalpy new            =    -447.3793246140 Ry

     CASE: enthalpy_new < enthalpy_old

     new trust radius        =       0.0005743170 bohr
     new conv_thr            =            1.0E-12 Ry

     new unit-cell volume =    444.57261 a.u.^3 (    65.87886 Ang^3 )
     density =      7.59747 g/cm^3

CELL_PARAMETERS (alat=  9.11000000)
   0.952330522   0.000000000   0.000000000
   0.000000000   0.952330522   0.000000000
   0.000000000   0.000000000   0.648353956

ATOMIC_POSITIONS (crystal)
Sn      -0.000254868  -0.000254868   0.000000000
Sn       0.499765673   0.499765673   0.500000000
O        0.804141713   0.194895109   0.500000000
O        0.194895109   0.804141713   0.500000000
O        0.304333386   0.304333386   0.000000000
O        0.695118988   0.695118988   0.000000000



     Writing output data file SnO2.save
     NEW-OLD atomic charge density approx. for the potential

     Check: negative/imaginary core charge=   -0.000082    0.000000
     extrapolated charge   52.00174, renormalised to   52.00000

     total cpu time spent up to now is     4483.6 secs

     Self-consistent Calculation

     iteration #  1     ecut=    50.00 Ry     beta= 0.70
     Davidson diagonalization with overlap
     ethr =  1.00E-06,  avg # of iterations =  2.0

     Threshold (ethr) on eigenvalues was too large:
     Diagonalizing with lowered threshold

     Davidson diagonalization with overlap
     ethr =  5.05E-10,  avg # of iterations =  3.4

     total cpu time spent up to now is     4602.4 secs

     total energy              =    -447.37932484 Ry
     Harris-Foulkes estimate   =    -447.37598909 Ry
     estimated scf accuracy    <       0.00000028 Ry

     iteration #  2     ecut=    50.00 Ry     beta= 0.70
     Davidson diagonalization with overlap
     ethr =  5.44E-10,  avg # of iterations =  3.0

     total cpu time spent up to now is     4668.8 secs

     total energy              =    -447.37932501 Ry
     Harris-Foulkes estimate   =    -447.37932511 Ry
     estimated scf accuracy    <       0.00000021 Ry

     iteration #  3     ecut=    50.00 Ry     beta= 0.70
     Davidson diagonalization with overlap
     ethr =  4.08E-10,  avg # of iterations =  2.0

     total cpu time spent up to now is     4722.0 secs

     total energy              =    -447.37932504 Ry
     Harris-Foulkes estimate   =    -447.37932504 Ry
     estimated scf accuracy    <       0.00000001 Ry

     iteration #  4     ecut=    50.00 Ry     beta= 0.70
     Davidson diagonalization with overlap
     ethr =  1.95E-11,  avg # of iterations =  2.0

     total cpu time spent up to now is     4777.0 secs

     total energy              =    -447.37932504 Ry
     Harris-Foulkes estimate   =    -447.37932504 Ry
     estimated scf accuracy    <          2.0E-09 Ry

     iteration #  5     ecut=    50.00 Ry     beta= 0.70
     Davidson diagonalization with overlap
     ethr =  3.79E-12,  avg # of iterations =  2.0

     total cpu time spent up to now is     4830.5 secs

     total energy              =    -447.37932504 Ry
     Harris-Foulkes estimate   =    -447.37932504 Ry
     estimated scf accuracy    <          3.0E-11 Ry

     iteration #  6     ecut=    50.00 Ry     beta= 0.70
     Davidson diagonalization with overlap
     ethr =  1.00E-13,  avg # of iterations =  3.0

     total cpu time spent up to now is     4890.2 secs

     total energy              =    -447.37932504 Ry
     Harris-Foulkes estimate   =    -447.37932504 Ry
     estimated scf accuracy    <          3.0E-11 Ry

     iteration #  7     ecut=    50.00 Ry     beta= 0.70
     Davidson diagonalization with overlap
     ethr =  1.00E-13,  avg # of iterations =  2.1

     total cpu time spent up to now is     4939.6 secs

     total energy              =    -447.37932504 Ry
     Harris-Foulkes estimate   =    -447.37932504 Ry
     estimated scf accuracy    <          1.2E-12 Ry

     iteration #  8     ecut=    50.00 Ry     beta= 0.70
     Davidson diagonalization with overlap
     ethr =  1.00E-13,  avg # of iterations =  1.0

     total cpu time spent up to now is     4981.6 secs

     End of self-consistent calculation

     Number of k-points >= 100: set verbosity='high' to print the bands.

     highest occupied level (ev):    11.1043

!    total energy              =    -447.37932504 Ry
     Harris-Foulkes estimate   =    -447.37932504 Ry
     estimated scf accuracy    <          6.4E-14 Ry

     The total energy is the sum of the following terms:

     one-electron contribution =    -102.53222508 Ry
     hartree contribution      =      94.46879071 Ry
     xc contribution           =    -122.68071770 Ry
     ewald contribution        =    -316.63517296 Ry

     convergence has been achieved in   8 iterations

     Forces acting on atoms (cartesian axes, Ry/au):

     atom    1 type  1   force =    -0.00003070   -0.00003070    0.00000000
     atom    2 type  1   force =    -0.00004628   -0.00004628    0.00000000
     atom    3 type  2   force =     0.00005493    0.00009541    0.00000000
     atom    4 type  2   force =     0.00009541    0.00005493    0.00000000
     atom    5 type  2   force =    -0.00005832   -0.00005832    0.00000000
     atom    6 type  2   force =    -0.00001504   -0.00001504    0.00000000

     Total force =     0.000194     Total SCF correction =     0.000001


     Computing stress (Cartesian axis) and pressure

          total   stress  (Ry/bohr**3)                   (kbar)     P=    0.05
  -0.00000008   0.00000056   0.00000000         -0.01      0.08      0.00
   0.00000056  -0.00000008   0.00000000          0.08     -0.01      0.00
   0.00000000   0.00000000   0.00000115          0.00      0.00      0.17


     number of scf cycles    =   7
     number of bfgs steps    =   5

     enthalpy old            =    -447.3793246140 Ry
     enthalpy new            =    -447.3793250394 Ry

     CASE: enthalpy_new < enthalpy_old

     new trust radius        =       0.0001315157 bohr
     new conv_thr            =            1.0E-12 Ry

     new unit-cell volume =    444.57591 a.u.^3 (    65.87935 Ang^3 )
     density =      7.59742 g/cm^3

CELL_PARAMETERS (alat=  9.11000000)
   0.952326577   0.000000000   0.000000000
   0.000000000   0.952326577   0.000000000
   0.000000000   0.000000000   0.648364139

ATOMIC_POSITIONS (crystal)
Sn      -0.000258842  -0.000258842   0.000000000
Sn       0.499759752   0.499759752   0.500000000
O        0.804146583   0.194909464   0.500000000
O        0.194909464   0.804146583   0.500000000
O        0.304323808   0.304323808   0.000000000
O        0.695119233   0.695119233   0.000000000



     Writing output data file SnO2.save
     NEW-OLD atomic charge density approx. for the potential

     Check: negative/imaginary core charge=   -0.000082    0.000000
     extrapolated charge   52.00039, renormalised to   52.00000

     total cpu time spent up to now is     5002.2 secs

     Self-consistent Calculation

     iteration #  1     ecut=    50.00 Ry     beta= 0.70
     Davidson diagonalization with overlap
     ethr =  1.00E-06,  avg # of iterations =  1.0

     Threshold (ethr) on eigenvalues was too large:
     Diagonalizing with lowered threshold

     Davidson diagonalization with overlap
     ethr =  1.20E-10,  avg # of iterations =  3.1

     total cpu time spent up to now is     5118.6 secs

     total energy              =    -447.37932507 Ry
     Harris-Foulkes estimate   =    -447.37858388 Ry
     estimated scf accuracy    <       0.00000001 Ry

     iteration #  2     ecut=    50.00 Ry     beta= 0.70
     Davidson diagonalization with overlap
     ethr =  2.48E-11,  avg # of iterations =  3.0

     total cpu time spent up to now is     5184.3 secs

     total energy              =    -447.37932508 Ry
     Harris-Foulkes estimate   =    -447.37932508 Ry
     estimated scf accuracy    <       0.00000001 Ry

     iteration #  3     ecut=    50.00 Ry     beta= 0.70
     Davidson diagonalization with overlap
     ethr =  2.10E-11,  avg # of iterations =  2.0

     total cpu time spent up to now is     5236.4 secs

     total energy              =    -447.37932508 Ry
     Harris-Foulkes estimate   =    -447.37932508 Ry
     estimated scf accuracy    <          5.8E-10 Ry

     iteration #  4     ecut=    50.00 Ry     beta= 0.70
     Davidson diagonalization with overlap
     ethr =  1.12E-12,  avg # of iterations =  2.0

     total cpu time spent up to now is     5291.2 secs

     total energy              =    -447.37932508 Ry
     Harris-Foulkes estimate   =    -447.37932508 Ry
     estimated scf accuracy    <          1.2E-10 Ry

     iteration #  5     ecut=    50.00 Ry     beta= 0.70
     Davidson diagonalization with overlap
     ethr =  2.39E-13,  avg # of iterations =  2.8

     total cpu time spent up to now is     5345.0 secs

     total energy              =    -447.37932508 Ry
     Harris-Foulkes estimate   =    -447.37932508 Ry
     estimated scf accuracy    <          1.7E-11 Ry

     iteration #  6     ecut=    50.00 Ry     beta= 0.70
     Davidson diagonalization with overlap
     ethr =  1.00E-13,  avg # of iterations =  2.0

     total cpu time spent up to now is     5393.0 secs

     total energy              =    -447.37932508 Ry
     Harris-Foulkes estimate   =    -447.37932508 Ry
     estimated scf accuracy    <          1.2E-12 Ry

     iteration #  7     ecut=    50.00 Ry     beta= 0.70
     Davidson diagonalization with overlap
     ethr =  1.00E-13,  avg # of iterations =  1.0

     total cpu time spent up to now is     5434.9 secs

     End of self-consistent calculation

     Number of k-points >= 100: set verbosity='high' to print the bands.

     highest occupied level (ev):    11.1042

!    total energy              =    -447.37932508 Ry
     Harris-Foulkes estimate   =    -447.37932508 Ry
     estimated scf accuracy    <          7.9E-14 Ry

     The total energy is the sum of the following terms:

     one-electron contribution =    -102.53137271 Ry
     hartree contribution      =      94.46810818 Ry
     xc contribution           =    -122.68064505 Ry
     ewald contribution        =    -316.63541550 Ry

     convergence has been achieved in   7 iterations

     Forces acting on atoms (cartesian axes, Ry/au):

     atom    1 type  1   force =    -0.00003885   -0.00003885    0.00000000
     atom    2 type  1   force =    -0.00004669   -0.00004669    0.00000000
     atom    3 type  2   force =     0.00008262    0.00005612    0.00000000
     atom    4 type  2   force =     0.00005612    0.00008262    0.00000000
     atom    5 type  2   force =    -0.00001335   -0.00001335    0.00000000
     atom    6 type  2   force =    -0.00003985   -0.00003985    0.00000000

     Total force =     0.000176     Total SCF correction =     0.000001


     Computing stress (Cartesian axis) and pressure

          total   stress  (Ry/bohr**3)                   (kbar)     P=   -0.01
  -0.00000007   0.00000056   0.00000000         -0.01      0.08      0.00
   0.00000056  -0.00000007   0.00000000          0.08     -0.01      0.00
   0.00000000   0.00000000  -0.00000006          0.00      0.00     -0.01


     number of scf cycles    =   8
     number of bfgs steps    =   6

     enthalpy old            =    -447.3793250394 Ry
     enthalpy new            =    -447.3793250812 Ry

     CASE: enthalpy_new < enthalpy_old

     new trust radius        =       0.0001446667 bohr
     new conv_thr            =            1.0E-12 Ry

     new unit-cell volume =    444.57745 a.u.^3 (    65.87958 Ang^3 )
     density =      7.59739 g/cm^3

CELL_PARAMETERS (alat=  9.11000000)
   0.952324248   0.000000000   0.000000000
   0.000000000   0.952324248   0.000000000
   0.000000000   0.000000000   0.648369555

ATOMIC_POSITIONS (crystal)
Sn      -0.000264542  -0.000264542   0.000000000
Sn       0.499752236   0.499752236   0.500000000
O        0.804156281   0.194923029   0.500000000
O        0.194923029   0.804156281   0.500000000
O        0.304316760   0.304316760   0.000000000
O        0.695116237   0.695116237   0.000000000



     Writing output data file SnO2.save
     NEW-OLD atomic charge density approx. for the potential

     Check: negative/imaginary core charge=   -0.000082    0.000000
     extrapolated charge   52.00018, renormalised to   52.00000

     total cpu time spent up to now is     5455.6 secs

     Self-consistent Calculation

     iteration #  1     ecut=    50.00 Ry     beta= 0.70
     Davidson diagonalization with overlap
     ethr =  1.00E-06,  avg # of iterations =  1.0

     Threshold (ethr) on eigenvalues was too large:
     Diagonalizing with lowered threshold

     Davidson diagonalization with overlap
     ethr =  1.78E-10,  avg # of iterations =  3.1

     total cpu time spent up to now is     5570.0 secs

     total energy              =    -447.37932511 Ry
     Harris-Foulkes estimate   =    -447.37897939 Ry
     estimated scf accuracy    <          8.5E-09 Ry

     iteration #  2     ecut=    50.00 Ry     beta= 0.70
     Davidson diagonalization with overlap
     ethr =  1.64E-11,  avg # of iterations =  2.1

     total cpu time spent up to now is     5629.2 secs

     total energy              =    -447.37932512 Ry
     Harris-Foulkes estimate   =    -447.37932512 Ry
     estimated scf accuracy    <          2.7E-09 Ry

     iteration #  3     ecut=    50.00 Ry     beta= 0.70
     Davidson diagonalization with overlap
     ethr =  5.24E-12,  avg # of iterations =  2.0

     total cpu time spent up to now is     5684.5 secs

     total energy              =    -447.37932512 Ry
     Harris-Foulkes estimate   =    -447.37932512 Ry
     estimated scf accuracy    <          1.5E-10 Ry

     iteration #  4     ecut=    50.00 Ry     beta= 0.70
     Davidson diagonalization with overlap
     ethr =  2.86E-13,  avg # of iterations =  3.0

     total cpu time spent up to now is     5747.4 secs

     total energy              =    -447.37932512 Ry
     Harris-Foulkes estimate   =    -447.37932512 Ry
     estimated scf accuracy    <          5.3E-11 Ry

     iteration #  5     ecut=    50.00 Ry     beta= 0.70
     Davidson diagonalization with overlap
     ethr =  1.02E-13,  avg # of iterations =  3.1

     total cpu time spent up to now is     5804.6 secs

     total energy              =    -447.37932512 Ry
     Harris-Foulkes estimate   =    -447.37932512 Ry
     estimated scf accuracy    <          1.4E-11 Ry

     iteration #  6     ecut=    50.00 Ry     beta= 0.70
     Davidson diagonalization with overlap
     ethr =  1.00E-13,  avg # of iterations =  2.0

     total cpu time spent up to now is     5850.4 secs

     End of self-consistent calculation

     Number of k-points >= 100: set verbosity='high' to print the bands.

     highest occupied level (ev):    11.1042

!    total energy              =    -447.37932512 Ry
     Harris-Foulkes estimate   =    -447.37932512 Ry
     estimated scf accuracy    <          2.5E-13 Ry

     The total energy is the sum of the following terms:

     one-electron contribution =    -102.53094152 Ry
     hartree contribution      =      94.46777514 Ry
     xc contribution           =    -122.68061032 Ry
     ewald contribution        =    -316.63554841 Ry

     convergence has been achieved in   6 iterations

     Forces acting on atoms (cartesian axes, Ry/au):

     atom    1 type  1   force =    -0.00003994   -0.00003994    0.00000000
     atom    2 type  1   force =    -0.00004546   -0.00004546    0.00000000
     atom    3 type  2   force =     0.00009069    0.00003528    0.00000000
     atom    4 type  2   force =     0.00003528    0.00009069    0.00000000
     atom    5 type  2   force =     0.00000820    0.00000820    0.00000000
     atom    6 type  2   force =    -0.00004877   -0.00004877    0.00000000

     Total force =     0.000176     Total SCF correction =     0.000000


     Computing stress (Cartesian axis) and pressure

          total   stress  (Ry/bohr**3)                   (kbar)     P=   -0.04
  -0.00000006   0.00000056   0.00000000         -0.01      0.08      0.00
   0.00000056  -0.00000006   0.00000000          0.08     -0.01      0.00
   0.00000000  -0.00000000  -0.00000067          0.00     -0.00     -0.10


     number of scf cycles    =   9
     number of bfgs steps    =   7

     enthalpy old            =    -447.3793250812 Ry
     enthalpy new            =    -447.3793251178 Ry

     CASE: enthalpy_new < enthalpy_old

     new trust radius        =       0.0002169995 bohr
     new conv_thr            =            1.0E-12 Ry

     new unit-cell volume =    444.57845 a.u.^3 (    65.87973 Ang^3 )
     density =      7.59737 g/cm^3

CELL_PARAMETERS (alat=  9.11000000)
   0.952322388   0.000000000   0.000000000
   0.000000000   0.952322388   0.000000000
   0.000000000   0.000000000   0.648373548

ATOMIC_POSITIONS (crystal)
Sn      -0.000273552  -0.000273552   0.000000000
Sn       0.499740506   0.499740506   0.500000000
O        0.804172739   0.194941864   0.500000000
O        0.194941864   0.804172739   0.500000000
O        0.304308230   0.304308230   0.000000000
O        0.695110214   0.695110214   0.000000000



     Writing output data file SnO2.save
     NEW-OLD atomic charge density approx. for the potential

     Check: negative/imaginary core charge=   -0.000082    0.000000
     extrapolated charge   52.00012, renormalised to   52.00000

     total cpu time spent up to now is     5871.3 secs

     Self-consistent Calculation

     iteration #  1     ecut=    50.00 Ry     beta= 0.70
     Davidson diagonalization with overlap
     ethr =  1.00E-06,  avg # of iterations =  1.0

     Threshold (ethr) on eigenvalues was too large:
     Diagonalizing with lowered threshold

     Davidson diagonalization with overlap
     ethr =  4.24E-10,  avg # of iterations =  3.1

     total cpu time spent up to now is     5986.6 secs

     total energy              =    -447.37932516 Ry
     Harris-Foulkes estimate   =    -447.37910036 Ry
     estimated scf accuracy    <       0.00000002 Ry

     iteration #  2     ecut=    50.00 Ry     beta= 0.70
     Davidson diagonalization with overlap
     ethr =  3.13E-11,  avg # of iterations =  2.0

     total cpu time spent up to now is     6042.6 secs

     total energy              =    -447.37932517 Ry
     Harris-Foulkes estimate   =    -447.37932517 Ry
     estimated scf accuracy    <          2.1E-09 Ry

     iteration #  3     ecut=    50.00 Ry     beta= 0.70
     Davidson diagonalization with overlap
     ethr =  4.09E-12,  avg # of iterations =  2.0

     total cpu time spent up to now is     6101.2 secs

     total energy              =    -447.37932517 Ry
     Harris-Foulkes estimate   =    -447.37932517 Ry
     estimated scf accuracy    <          3.0E-10 Ry

     iteration #  4     ecut=    50.00 Ry     beta= 0.70
     Davidson diagonalization with overlap
     ethr =  5.83E-13,  avg # of iterations =  2.9

     total cpu time spent up to now is     6160.3 secs

     total energy              =    -447.37932517 Ry
     Harris-Foulkes estimate   =    -447.37932517 Ry
     estimated scf accuracy    <          7.0E-11 Ry

     iteration #  5     ecut=    50.00 Ry     beta= 0.70
     Davidson diagonalization with overlap
     ethr =  1.34E-13,  avg # of iterations =  3.1

     total cpu time spent up to now is     6217.0 secs

     total energy              =    -447.37932517 Ry
     Harris-Foulkes estimate   =    -447.37932517 Ry
     estimated scf accuracy    <          1.4E-11 Ry

     iteration #  6     ecut=    50.00 Ry     beta= 0.70
     Davidson diagonalization with overlap
     ethr =  1.00E-13,  avg # of iterations =  2.0

     total cpu time spent up to now is     6262.8 secs

     End of self-consistent calculation

     Number of k-points >= 100: set verbosity='high' to print the bands.

     highest occupied level (ev):    11.1042

!    total energy              =    -447.37932517 Ry
     Harris-Foulkes estimate   =    -447.37932517 Ry
     estimated scf accuracy    <          2.8E-13 Ry

     The total energy is the sum of the following terms:

     one-electron contribution =    -102.53061803 Ry
     hartree contribution      =      94.46753946 Ry
     xc contribution           =    -122.68058758 Ry
     ewald contribution        =    -316.63565903 Ry

     convergence has been achieved in   6 iterations

     Forces acting on atoms (cartesian axes, Ry/au):

     atom    1 type  1   force =    -0.00003964   -0.00003964    0.00000000
     atom    2 type  1   force =    -0.00004014   -0.00004014    0.00000000
     atom    3 type  2   force =     0.00009079    0.00001666    0.00000000
     atom    4 type  2   force =     0.00001666    0.00009079    0.00000000
     atom    5 type  2   force =     0.00002452    0.00002452    0.00000000
     atom    6 type  2   force =    -0.00005218   -0.00005218    0.00000000

     Total force =     0.000173     Total SCF correction =     0.000001


     Computing stress (Cartesian axis) and pressure

          total   stress  (Ry/bohr**3)                   (kbar)     P=   -0.06
  -0.00000003   0.00000056   0.00000000         -0.01      0.08      0.00
   0.00000056  -0.00000003   0.00000000          0.08     -0.01      0.00
   0.00000000   0.00000000  -0.00000109          0.00      0.00     -0.16


     number of scf cycles    =  10
     number of bfgs steps    =   8

     enthalpy old            =    -447.3793251178 Ry
     enthalpy new            =    -447.3793251676 Ry

     CASE: enthalpy_new < enthalpy_old

     new trust radius        =       0.0003254986 bohr
     new conv_thr            =            1.0E-12 Ry

     new unit-cell volume =    444.57901 a.u.^3 (    65.87981 Ang^3 )
     density =      7.59737 g/cm^3

CELL_PARAMETERS (alat=  9.11000000)
   0.952321169   0.000000000   0.000000000
   0.000000000   0.952321169   0.000000000
   0.000000000   0.000000000   0.648376030

ATOMIC_POSITIONS (crystal)
Sn      -0.000287657  -0.000287657   0.000000000
Sn       0.499722818   0.499722818   0.500000000
O        0.804198909   0.194968749   0.500000000
O        0.194968749   0.804198909   0.500000000
O        0.304297195   0.304297195   0.000000000
O        0.695099986   0.695099986   0.000000000



     Writing output data file SnO2.save
     NEW-OLD atomic charge density approx. for the potential

     Check: negative/imaginary core charge=   -0.000082    0.000000
     extrapolated charge   52.00007, renormalised to   52.00000

     total cpu time spent up to now is     6283.4 secs

     Self-consistent Calculation

     iteration #  1     ecut=    50.00 Ry     beta= 0.70
     Davidson diagonalization with overlap
     ethr =  1.00E-06,  avg # of iterations =  2.0

     Threshold (ethr) on eigenvalues was too large:
     Diagonalizing with lowered threshold

     Davidson diagonalization with overlap
     ethr =  6.11E-11,  avg # of iterations =  4.3

     total cpu time spent up to now is     6408.0 secs

     total energy              =    -447.37932522 Ry
     Harris-Foulkes estimate   =    -447.37919865 Ry
     estimated scf accuracy    <       0.00000004 Ry

     iteration #  2     ecut=    50.00 Ry     beta= 0.70
     Davidson diagonalization with overlap
     ethr =  6.76E-11,  avg # of iterations =  2.0

     total cpu time spent up to now is     6460.0 secs

     total energy              =    -447.37932523 Ry
     Harris-Foulkes estimate   =    -447.37932523 Ry
     estimated scf accuracy    <          3.1E-09 Ry

     iteration #  3     ecut=    50.00 Ry     beta= 0.70
     Davidson diagonalization with overlap
     ethr =  5.96E-12,  avg # of iterations =  2.2

     total cpu time spent up to now is     6517.9 secs

     total energy              =    -447.37932523 Ry
     Harris-Foulkes estimate   =    -447.37932523 Ry
     estimated scf accuracy    <          6.5E-10 Ry

     iteration #  4     ecut=    50.00 Ry     beta= 0.70
     Davidson diagonalization with overlap
     ethr =  1.25E-12,  avg # of iterations =  3.0

     total cpu time spent up to now is     6576.8 secs

     total energy              =    -447.37932523 Ry
     Harris-Foulkes estimate   =    -447.37932523 Ry
     estimated scf accuracy    <          1.7E-10 Ry

     iteration #  5     ecut=    50.00 Ry     beta= 0.70
     Davidson diagonalization with overlap
     ethr =  3.21E-13,  avg # of iterations =  3.1

     total cpu time spent up to now is     6632.1 secs

     total energy              =    -447.37932523 Ry
     Harris-Foulkes estimate   =    -447.37932523 Ry
     estimated scf accuracy    <          2.0E-11 Ry

     iteration #  6     ecut=    50.00 Ry     beta= 0.70
     Davidson diagonalization with overlap
     ethr =  1.00E-13,  avg # of iterations =  2.0

     total cpu time spent up to now is     6679.3 secs

     End of self-consistent calculation

     Number of k-points >= 100: set verbosity='high' to print the bands.

     highest occupied level (ev):    11.1041

!    total energy              =    -447.37932523 Ry
     Harris-Foulkes estimate   =    -447.37932523 Ry
     estimated scf accuracy    <          4.5E-13 Ry

     The total energy is the sum of the following terms:

     one-electron contribution =    -102.53046786 Ry
     hartree contribution      =      94.46742477 Ry
     xc contribution           =    -122.68057539 Ry
     ewald contribution        =    -316.63570674 Ry

     convergence has been achieved in   6 iterations

     Forces acting on atoms (cartesian axes, Ry/au):

     atom    1 type  1   force =    -0.00003461   -0.00003461    0.00000000
     atom    2 type  1   force =    -0.00003174   -0.00003174    0.00000000
     atom    3 type  2   force =     0.00008082   -0.00000051    0.00000000
     atom    4 type  2   force =    -0.00000051    0.00008082    0.00000000
     atom    5 type  2   force =     0.00003535    0.00003535    0.00000000
     atom    6 type  2   force =    -0.00004931   -0.00004931    0.00000000

     Total force =     0.000158     Total SCF correction =     0.000002


     Computing stress (Cartesian axis) and pressure

          total   stress  (Ry/bohr**3)                   (kbar)     P=   -0.07
  -0.00000002   0.00000056   0.00000000         -0.00      0.08      0.00
   0.00000056  -0.00000002   0.00000000          0.08     -0.00      0.00
   0.00000000   0.00000000  -0.00000133          0.00      0.00     -0.20


     number of scf cycles    =  11
     number of bfgs steps    =   9

     enthalpy old            =    -447.3793251676 Ry
     enthalpy new            =    -447.3793252314 Ry

     CASE: enthalpy_new < enthalpy_old

     new trust radius        =       0.0004882473 bohr
     new conv_thr            =            1.0E-12 Ry

     new unit-cell volume =    444.57865 a.u.^3 (    65.87976 Ang^3 )
     density =      7.59737 g/cm^3

CELL_PARAMETERS (alat=  9.11000000)
   0.952320893   0.000000000   0.000000000
   0.000000000   0.952320893   0.000000000
   0.000000000   0.000000000   0.648375881

ATOMIC_POSITIONS (crystal)
Sn      -0.000309327  -0.000309327   0.000000000
Sn       0.499696150   0.499696150   0.500000000
O        0.804239667   0.195007556   0.500000000
O        0.195007556   0.804239667   0.500000000
O        0.304282566   0.304282566   0.000000000
O        0.695083389   0.695083389   0.000000000



     Writing output data file SnO2.save
     NEW-OLD atomic charge density approx. for the potential

     Check: negative/imaginary core charge=   -0.000082    0.000000
     extrapolated charge   51.99996, renormalised to   52.00000

     total cpu time spent up to now is     6699.9 secs

     Self-consistent Calculation

     iteration #  1     ecut=    50.00 Ry     beta= 0.70
     Davidson diagonalization with overlap
     ethr =  1.00E-06,  avg # of iterations =  2.0

     Threshold (ethr) on eigenvalues was too large:
     Diagonalizing with lowered threshold

     Davidson diagonalization with overlap
     ethr =  6.36E-11,  avg # of iterations =  4.2

     total cpu time spent up to now is     6826.8 secs

     total energy              =    -447.37932528 Ry
     Harris-Foulkes estimate   =    -447.37940599 Ry
     estimated scf accuracy    <       0.00000008 Ry

     iteration #  2     ecut=    50.00 Ry     beta= 0.70
     Davidson diagonalization with overlap
     ethr =  1.51E-10,  avg # of iterations =  2.0

     total cpu time spent up to now is     6878.6 secs

     total energy              =    -447.37932530 Ry
     Harris-Foulkes estimate   =    -447.37932530 Ry
     estimated scf accuracy    <          6.4E-09 Ry

     iteration #  3     ecut=    50.00 Ry     beta= 0.70
     Davidson diagonalization with overlap
     ethr =  1.24E-11,  avg # of iterations =  2.3

     total cpu time spent up to now is     6937.3 secs

     total energy              =    -447.37932530 Ry
     Harris-Foulkes estimate   =    -447.37932530 Ry
     estimated scf accuracy    <          1.4E-09 Ry

     iteration #  4     ecut=    50.00 Ry     beta= 0.70
     Davidson diagonalization with overlap
     ethr =  2.69E-12,  avg # of iterations =  3.1

     total cpu time spent up to now is     6997.4 secs

     total energy              =    -447.37932530 Ry
     Harris-Foulkes estimate   =    -447.37932530 Ry
     estimated scf accuracy    <          3.7E-10 Ry

     iteration #  5     ecut=    50.00 Ry     beta= 0.70
     Davidson diagonalization with overlap
     ethr =  7.07E-13,  avg # of iterations =  3.1

     total cpu time spent up to now is     7053.2 secs

     total energy              =    -447.37932530 Ry
     Harris-Foulkes estimate   =    -447.37932530 Ry
     estimated scf accuracy    <          3.8E-11 Ry

     iteration #  6     ecut=    50.00 Ry     beta= 0.70
     Davidson diagonalization with overlap
     ethr =  1.00E-13,  avg # of iterations =  2.3

     total cpu time spent up to now is     7104.1 secs

     End of self-consistent calculation

     Number of k-points >= 100: set verbosity='high' to print the bands.

     highest occupied level (ev):    11.1041

!    total energy              =    -447.37932530 Ry
     Harris-Foulkes estimate   =    -447.37932530 Ry
     estimated scf accuracy    <          3.8E-13 Ry

     The total energy is the sum of the following terms:

     one-electron contribution =    -102.53053341 Ry
     hartree contribution      =      94.46749253 Ry
     xc contribution           =    -122.68058425 Ry
     ewald contribution        =    -316.63570017 Ry

     convergence has been achieved in   6 iterations

     Forces acting on atoms (cartesian axes, Ry/au):

     atom    1 type  1   force =    -0.00002157   -0.00002157    0.00000000
     atom    2 type  1   force =    -0.00001853   -0.00001853    0.00000000
     atom    3 type  2   force =     0.00005512   -0.00001510    0.00000000
     atom    4 type  2   force =    -0.00001510    0.00005512    0.00000000
     atom    5 type  2   force =     0.00003668    0.00003668    0.00000000
     atom    6 type  2   force =    -0.00003660   -0.00003660    0.00000000

     Total force =     0.000116     Total SCF correction =     0.000002


     Computing stress (Cartesian axis) and pressure

          total   stress  (Ry/bohr**3)                   (kbar)     P=   -0.06
   0.00000000   0.00000056   0.00000000          0.00      0.08      0.00
   0.00000056   0.00000000   0.00000000          0.08      0.00      0.00
   0.00000000   0.00000000  -0.00000124          0.00      0.00     -0.18


     number of scf cycles    =  12
     number of bfgs steps    =  10

     enthalpy old            =    -447.3793252314 Ry
     enthalpy new            =    -447.3793252991 Ry

     CASE: enthalpy_new < enthalpy_old

     new trust radius        =       0.0005210053 bohr
     new conv_thr            =            1.0E-12 Ry

     new unit-cell volume =    444.57705 a.u.^3 (    65.87952 Ang^3 )
     density =      7.59740 g/cm^3

CELL_PARAMETERS (alat=  9.11000000)
   0.952322582   0.000000000   0.000000000
   0.000000000   0.952322582   0.000000000
   0.000000000   0.000000000   0.648371234

ATOMIC_POSITIONS (crystal)
Sn      -0.000332725  -0.000332725   0.000000000
Sn       0.499667417   0.499667417   0.500000000
O        0.804284912   0.195047044   0.500000000
O        0.195047044   0.804284912   0.500000000
O        0.304269224   0.304269224   0.000000000
O        0.695064128   0.695064128   0.000000000



     Writing output data file SnO2.save
     NEW-OLD atomic charge density approx. for the potential

     Check: negative/imaginary core charge=   -0.000082    0.000000
     extrapolated charge   51.99981, renormalised to   52.00000

     total cpu time spent up to now is     7125.2 secs

     Self-consistent Calculation

     iteration #  1     ecut=    50.00 Ry     beta= 0.70
[...]
   0.00000000   0.00000000   0.00000061          0.00      0.00      0.09


     number of scf cycles    =  14
     number of bfgs steps    =  12

     enthalpy old            =    -447.3793253295 Ry
     enthalpy new            =    -447.3793253306 Ry

     CASE: enthalpy_new < enthalpy_old

     Message from routine bfgs:
     history already reset at previous step: stopping
     small trust_radius: resetting bfgs history

     new trust radius        =       0.0000644651 bohr
     new conv_thr            =            1.2E-13 Ry

     new unit-cell volume =    444.58434 a.u.^3 (    65.88060 Ang^3 )
     density =      7.59727 g/cm^3

CELL_PARAMETERS (alat=  9.11000000)
   0.952330690   0.000000000   0.000000000
   0.000000000   0.952330690   0.000000000
   0.000000000   0.000000000   0.648370835

ATOMIC_POSITIONS (crystal)
Sn      -0.000332852  -0.000332852   0.000000000
Sn       0.499667101   0.499667101   0.500000000
O        0.804286375   0.195044983   0.500000000
O        0.195044983   0.804286375   0.500000000
O        0.304271608   0.304271608   0.000000000
O        0.695062786   0.695062786   0.000000000



     Writing output data file SnO2.save
     NEW-OLD atomic charge density approx. for the potential

     Check: negative/imaginary core charge=   -0.000082    0.000000
     extrapolated charge   52.00168, renormalised to   52.00000

     total cpu time spent up to now is     8047.5 secs

     Self-consistent Calculation

     iteration #  1     ecut=    50.00 Ry     beta= 0.70
     Davidson diagonalization with overlap
     ethr =  1.00E-06,  avg # of iterations =  1.0

     Threshold (ethr) on eigenvalues was too large:
     Diagonalizing with lowered threshold

     Davidson diagonalization with overlap
     ethr =  1.34E-10,  avg # of iterations =  1.9

     total cpu time spent up to now is     8134.2 secs

     total energy              =    -447.37932520 Ry
     Harris-Foulkes estimate   =    -447.37610134 Ry
     estimated scf accuracy    <       0.00000008 Ry

     iteration #  2     ecut=    50.00 Ry     beta= 0.70
     Davidson diagonalization with overlap
     ethr =  1.47E-10,  avg # of iterations =  4.0

     total cpu time spent up to now is     8209.9 secs

     total energy              =    -447.37932532 Ry
     Harris-Foulkes estimate   =    -447.37932539 Ry
     estimated scf accuracy    <       0.00000016 Ry

     iteration #  3     ecut=    50.00 Ry     beta= 0.70
     Davidson diagonalization with overlap
     ethr =  1.47E-10,  avg # of iterations =  2.0

     total cpu time spent up to now is     8263.7 secs

     total energy              =    -447.37932533 Ry
     Harris-Foulkes estimate   =    -447.37932534 Ry
     estimated scf accuracy    <       0.00000002 Ry

     iteration #  4     ecut=    50.00 Ry     beta= 0.70
     Davidson diagonalization with overlap
     ethr =  4.41E-11,  avg # of iterations =  1.0

     total cpu time spent up to now is     8306.2 secs

     total energy              =    -447.37932533 Ry
     Harris-Foulkes estimate   =    -447.37932533 Ry
     estimated scf accuracy    <       0.00000001 Ry

     iteration #  5     ecut=    50.00 Ry     beta= 0.70
     Davidson diagonalization with overlap
     ethr =  2.26E-11,  avg # of iterations =  2.0

     total cpu time spent up to now is     8354.9 secs

     total energy              =    -447.37932533 Ry
     Harris-Foulkes estimate   =    -447.37932533 Ry
     estimated scf accuracy    <          1.4E-09 Ry

     iteration #  6     ecut=    50.00 Ry     beta= 0.70
     Davidson diagonalization with overlap
     ethr =  2.65E-12,  avg # of iterations =  2.4

     total cpu time spent up to now is     8415.7 secs

     total energy              =    -447.37932533 Ry
     Harris-Foulkes estimate   =    -447.37932533 Ry
     estimated scf accuracy    <          1.4E-11 Ry

     iteration #  7     ecut=    50.00 Ry     beta= 0.70
     Davidson diagonalization with overlap
     ethr =  1.00E-13,  avg # of iterations =  2.0

     total cpu time spent up to now is     8469.4 secs

     total energy              =    -447.37932533 Ry
     Harris-Foulkes estimate   =    -447.37932533 Ry
     estimated scf accuracy    <          2.0E-11 Ry

     iteration #  8     ecut=    50.00 Ry     beta= 0.70
     Davidson diagonalization with overlap
     ethr =  1.00E-13,  avg # of iterations =  1.0

     total cpu time spent up to now is     8512.0 secs

     total energy              =    -447.37932533 Ry
     Harris-Foulkes estimate   =    -447.37932533 Ry
     estimated scf accuracy    <          4.9E-12 Ry

     iteration #  9     ecut=    50.00 Ry     beta= 0.70
     Davidson diagonalization with overlap
     ethr =  1.00E-13,  avg # of iterations =  1.0

     total cpu time spent up to now is     8554.6 secs

     End of self-consistent calculation

     Number of k-points >= 100: set verbosity='high' to print the bands.

     highest occupied level (ev):    11.1039

!    total energy              =    -447.37932533 Ry
     Harris-Foulkes estimate   =    -447.37932533 Ry
     estimated scf accuracy    <          2.1E-14 Ry

     The total energy is the sum of the following terms:

     one-electron contribution =    -102.53438372 Ry
     hartree contribution      =      94.46898140 Ry
     xc contribution           =    -122.68054168 Ry
     ewald contribution        =    -316.63338133 Ry

     convergence has been achieved in   9 iterations

     Forces acting on atoms (cartesian axes, Ry/au):

     atom    1 type  1   force =     0.00000051    0.00000051    0.00000000
     atom    2 type  1   force =     0.00000064    0.00000064    0.00000000
     atom    3 type  2   force =     0.00000339   -0.00000540    0.00000000
     atom    4 type  2   force =    -0.00000540    0.00000339    0.00000000
     atom    5 type  2   force =     0.00000475    0.00000475    0.00000000
     atom    6 type  2   force =    -0.00000389   -0.00000389    0.00000000

     Total force =     0.000013     Total SCF correction =     0.000000


     Computing stress (Cartesian axis) and pressure

          total   stress  (Ry/bohr**3)                   (kbar)     P=   -0.11
  -0.00000065   0.00000056   0.00000000         -0.10      0.08      0.00
   0.00000056  -0.00000065   0.00000000          0.08     -0.10      0.00
  -0.00000000   0.00000000  -0.00000088         -0.00      0.00     -0.13


     bfgs converged in  15 scf cycles and  13 bfgs steps
     (criteria: energy <  1.0E-10 Ry, force <  1.0E-09Ry/Bohr, cell <  5.0E-01kbar)

     End of BFGS Geometry Optimization

     Final enthalpy =    -447.3793253286 Ry
Begin final coordinates
     new unit-cell volume =    444.58434 a.u.^3 (    65.88060 Ang^3 )
     density =      7.59727 g/cm^3

CELL_PARAMETERS (alat=  9.11000000)
   0.952330690   0.000000000   0.000000000
   0.000000000   0.952330690   0.000000000
   0.000000000   0.000000000   0.648370835

ATOMIC_POSITIONS (crystal)
Sn      -0.000332852  -0.000332852   0.000000000
Sn       0.499667101   0.499667101   0.500000000
O        0.804286375   0.195044983   0.500000000
O        0.195044983   0.804286375   0.500000000
O        0.304271608   0.304271608   0.000000000
O        0.695062786   0.695062786   0.000000000
End final coordinates



     A final scf calculation at the relaxed structure.
     The G-vectors are recalculated for the final unit cell
     Results may differ from those at the preceding step.
 
     Parallelization info
     --------------------
     sticks:   dense  smooth     PW     G-vecs:    dense   smooth      PW
     Min         600     600    182                10628    10628    1777
     Max         601     601    183                10631    10631    1778
     Sum        1201    1201    365                21259    21259    3555
 


     bravais-lattice index     =            6
     lattice parameter (alat)  =       9.1100  a.u.
     unit-cell volume          =     444.5843 (a.u.)^3
     number of atoms/cell      =            6
     number of atomic types    =            2
     number of electrons       =        52.00
     number of Kohn-Sham states=           26
     kinetic-energy cutoff     =      50.0000  Ry
     charge density cutoff     =     200.0000  Ry
     convergence threshold     =      1.2E-13
     mixing beta               =       0.7000
     number of iterations used =            8  plain     mixing
     Exchange-correlation      = PBE ( 1  4  3  4 0 0)

     celldm(1)=   9.110000  celldm(2)=   0.000000  celldm(3)=   0.670000
     celldm(4)=   0.000000  celldm(5)=   0.000000  celldm(6)=   0.000000

     crystal axes: (cart. coord. in units of alat)
               a(1) = (   0.952331   0.000000   0.000000 )  
               a(2) = (   0.000000   0.952331   0.000000 )  
               a(3) = (   0.000000   0.000000   0.648371 )  

     reciprocal axes: (cart. coord. in units 2 pi/alat)
               b(1) = (  1.050055  0.000000  0.000000 )  
               b(2) = (  0.000000  1.050055  0.000000 )  
               b(3) = (  0.000000  0.000000  1.542327 )  


     PseudoPot. # 1 for Sn read from file:
     ../../Pseudo_potentials/Sn_PBE.upf
     MD5 check sum: 78e6386ae56e929f0568ae8bf606a80c
     Pseudo is Norm-conserving + core correction, Zval = 14.0
     Generated using ONCVPSP code by D. R. Hamann
     Using radial grid of 1628 points,  6 beta functions with: 
                l(1) =   0
                l(2) =   0
                l(3) =   1
                l(4) =   1
                l(5) =   2
                l(6) =   2

     PseudoPot. # 2 for O  read from file:
     ../../Pseudo_potentials/O_PBE.upf
     MD5 check sum: 3e3f909f7470e8921608ab6b1f57bbae
     Pseudo is Norm-conserving + core correction, Zval =  6.0
     Generated using ONCVPSP code by D. R. Hamann
     Using radial grid of  936 points,  5 beta functions with: 
                l(1) =   0
                l(2) =   0
                l(3) =   1
                l(4) =   1
                l(5) =   2

     atomic species   valence    mass     pseudopotential
        Sn            14.00   118.71000     Sn( 1.00)
        O              6.00    15.99900     O ( 1.00)

      4 Sym. Ops. (no inversion) found



   Cartesian axes

     site n.     atom                  positions (alat units)
         1           Sn  tau(   1) = (  -0.0003170  -0.0003170   0.0000000  )
         2           Sn  tau(   2) = (   0.4758483   0.4758483   0.3241854  )
         3           O   tau(   3) = (   0.7659466   0.1857473   0.3241854  )
         4           O   tau(   4) = (   0.1857473   0.7659466   0.3241854  )
         5           O   tau(   5) = (   0.2897672   0.2897672   0.0000000  )
         6           O   tau(   6) = (   0.6619296   0.6619296   0.0000000  )

     number of k points=   301

     Number of k-points >= 100: set verbosity='high' to print them.

     Dense  grid:    21259 G-vectors     FFT dimensions: (  40,  40,  27)

     Estimated max dynamical RAM per process >     178.56 MB

     Estimated total dynamical RAM >     357.13 MB

     Check: negative/imaginary core charge=   -0.000160    0.000000

     Initial potential from superposition of free atoms

     starting charge   51.99690, renormalised to   52.00000
     Starting wfc are   34 randomized atomic wfcs

     Writing output data file SnO2.save

     total cpu time spent up to now is     8590.5 secs

     Self-consistent Calculation

     iteration #  1     ecut=    50.00 Ry     beta= 0.70
     Davidson diagonalization with overlap
     ethr =  1.00E-06,  avg # of iterations =  5.6

     total cpu time spent up to now is     8672.5 secs

     total energy              =    -446.59671513 Ry
     Harris-Foulkes estimate   =    -447.60248200 Ry
     estimated scf accuracy    <       1.40624672 Ry

     iteration #  2     ecut=    50.00 Ry     beta= 0.70
     Davidson diagonalization with overlap
     ethr =  2.70E-03,  avg # of iterations =  3.0

     total cpu time spent up to now is     8716.8 secs

     total energy              =    -446.96621713 Ry
     Harris-Foulkes estimate   =    -447.47135164 Ry
     estimated scf accuracy    <       0.97341340 Ry

     iteration #  3     ecut=    50.00 Ry     beta= 0.70
     Davidson diagonalization with overlap
     ethr =  1.87E-03,  avg # of iterations =  3.0

     total cpu time spent up to now is     8760.2 secs

     total energy              =    -447.16851998 Ry
     Harris-Foulkes estimate   =    -447.16916690 Ry
     estimated scf accuracy    <       0.00550856 Ry

     iteration #  4     ecut=    50.00 Ry     beta= 0.70
     Davidson diagonalization with overlap
     ethr =  1.06E-05,  avg # of iterations =  2.9

     total cpu time spent up to now is     8806.2 secs

     total energy              =    -447.17010529 Ry
     Harris-Foulkes estimate   =    -447.17021264 Ry
     estimated scf accuracy    <       0.00022526 Ry

     iteration #  5     ecut=    50.00 Ry     beta= 0.70
     Davidson diagonalization with overlap
     ethr =  4.33E-07,  avg # of iterations =  3.0

     total cpu time spent up to now is     8846.7 secs

     total energy              =    -447.17012707 Ry
     Harris-Foulkes estimate   =    -447.17013297 Ry
     estimated scf accuracy    <       0.00001695 Ry

     iteration #  6     ecut=    50.00 Ry     beta= 0.70
     Davidson diagonalization with overlap
     ethr =  3.26E-08,  avg # of iterations =  2.3

     total cpu time spent up to now is     8891.9 secs

     total energy              =    -447.17013115 Ry
     Harris-Foulkes estimate   =    -447.17013185 Ry
     estimated scf accuracy    <       0.00000162 Ry

     iteration #  7     ecut=    50.00 Ry     beta= 0.70
     Davidson diagonalization with overlap
     ethr =  3.11E-09,  avg # of iterations =  2.0

     total cpu time spent up to now is     8931.1 secs

     total energy              =    -447.17013133 Ry
     Harris-Foulkes estimate   =    -447.17013135 Ry
     estimated scf accuracy    <       0.00000007 Ry

     iteration #  8     ecut=    50.00 Ry     beta= 0.70
     Davidson diagonalization with overlap
     ethr =  1.37E-10,  avg # of iterations =  2.9

     total cpu time spent up to now is     8974.3 secs

     total energy              =    -447.17013134 Ry
     Harris-Foulkes estimate   =    -447.17013134 Ry
     estimated scf accuracy    <          1.1E-09 Ry

     iteration #  9     ecut=    50.00 Ry     beta= 0.70
     Davidson diagonalization with overlap
     ethr =  2.15E-12,  avg # of iterations =  3.3

     total cpu time spent up to now is     9026.8 secs

     total energy              =    -447.17013134 Ry
     Harris-Foulkes estimate   =    -447.17013134 Ry
     estimated scf accuracy    <          5.2E-10 Ry

     iteration # 10     ecut=    50.00 Ry     beta= 0.70
     Davidson diagonalization with overlap
     ethr =  1.00E-12,  avg # of iterations =  3.1

     total cpu time spent up to now is     9069.5 secs

     total energy              =    -447.17013134 Ry
     Harris-Foulkes estimate   =    -447.17013134 Ry
     estimated scf accuracy    <          4.8E-11 Ry

     iteration # 11     ecut=    50.00 Ry     beta= 0.70
     Davidson diagonalization with overlap
     ethr =  1.00E-13,  avg # of iterations =  2.0

     total cpu time spent up to now is     9109.5 secs

     total energy              =    -447.17013134 Ry
     Harris-Foulkes estimate   =    -447.17013134 Ry
     estimated scf accuracy    <          4.2E-12 Ry

     iteration # 12     ecut=    50.00 Ry     beta= 0.70
     Davidson diagonalization with overlap
     ethr =  1.00E-13,  avg # of iterations =  1.0

     total cpu time spent up to now is     9142.4 secs

     total energy              =    -447.17013134 Ry
     Harris-Foulkes estimate   =    -447.17013134 Ry
     estimated scf accuracy    <          1.8E-13 Ry

     iteration # 13     ecut=    50.00 Ry     beta= 0.70
     Davidson diagonalization with overlap
     ethr =  1.00E-13,  avg # of iterations =  1.0

     total cpu time spent up to now is     9175.3 secs

     End of self-consistent calculation

     Number of k-points >= 100: set verbosity='high' to print the bands.

     highest occupied level (ev):    11.1348

!    total energy              =    -447.17013134 Ry
     Harris-Foulkes estimate   =    -447.17013134 Ry
     estimated scf accuracy    <          3.4E-14 Ry

     The total energy is the sum of the following terms:

     one-electron contribution =    -102.17046363 Ry
     hartree contribution      =      94.23615887 Ry
     xc contribution           =    -122.60244525 Ry
     ewald contribution        =    -316.63338134 Ry

     convergence has been achieved in  13 iterations

     Forces acting on atoms (cartesian axes, Ry/au):

     atom    1 type  1   force =    -0.00000899   -0.00000899    0.00000000
     atom    2 type  1   force =    -0.00000725   -0.00000725    0.00000000
     atom    3 type  2   force =    -0.00161508    0.00163666    0.00000000
     atom    4 type  2   force =     0.00163666   -0.00161508    0.00000000
     atom    5 type  2   force =    -0.00147110   -0.00147110    0.00000000
     atom    6 type  2   force =     0.00146577    0.00146577    0.00000000

     Total force =     0.004382     Total SCF correction =     0.000000


     Computing stress (Cartesian axis) and pressure

          total   stress  (Ry/bohr**3)                   (kbar)     P= -393.84
  -0.00279727   0.00000078   0.00000000       -411.49      0.12      0.00
   0.00000078  -0.00279727   0.00000000          0.12   -411.49      0.00
   0.00000000   0.00000000  -0.00243721          0.00      0.00   -358.53


     Writing output data file SnO2.save
 
     init_run     :     37.70s CPU     38.29s WALL (       2 calls)
     electrons    :   8721.86s CPU   8825.62s WALL (      16 calls)
     update_pot   :     18.05s CPU     18.17s WALL (      14 calls)
     forces       :     70.04s CPU     70.52s WALL (      16 calls)
     stress       :    233.82s CPU    234.90s WALL (      16 calls)

     Called by init_run:
     wfcinit      :     36.23s CPU     36.79s WALL (       2 calls)
     potinit      :      0.45s CPU      0.45s WALL (       2 calls)
     hinit0       :      0.87s CPU      0.88s WALL (       2 calls)

     Called by electrons:
     c_bands      :   7671.79s CPU   7764.25s WALL (     159 calls)
     sum_band     :   1045.92s CPU   1056.80s WALL (     159 calls)
     v_of_rho     :      3.88s CPU      3.91s WALL (     164 calls)
     mix_rho      :      0.54s CPU      0.56s WALL (     159 calls)

     Called by c_bands:
     init_us_2    :    153.17s CPU    156.88s WALL (  105952 calls)
     cegterg      :   6924.77s CPU   7011.43s WALL (   47859 calls)

     Called by sum_band:

     Called by *egterg:
     h_psi        :   5827.04s CPU   5914.49s WALL (  167552 calls)
     g_psi        :     79.65s CPU     80.42s WALL (  119091 calls)
     cdiaghg      :    327.99s CPU    321.80s WALL (  159425 calls)

     Called by h_psi:
     h_psi:pot    :   5804.86s CPU   5890.73s WALL (  167552 calls)
     h_psi:calbec :    333.05s CPU    303.75s WALL (  167552 calls)
     vloc_psi     :   5244.51s CPU   5291.19s WALL (  167552 calls)
     add_vuspsi   :    226.93s CPU    295.05s WALL (  167552 calls)

     General routines
     calbec       :    393.83s CPU    354.98s WALL (  191632 calls)
     fft          :      2.24s CPU      2.37s WALL (    2065 calls)
     ffts         :      0.21s CPU      0.18s WALL (     159 calls)
     fftw         :   5936.04s CPU   5820.64s WALL ( 8158512 calls)
 
     Parallel routines
     fft_scatt_xy :    290.88s CPU    528.50s WALL ( 8160736 calls)
     fft_scatt_yz :   2674.34s CPU    572.99s WALL ( 8160736 calls)
 
     PWSCF        :     2h31m CPU        2h33m WALL

 
   This run was terminated on:  16:40:39   9Apr2018            

=------------------------------------------------------------------------------=
   JOB DONE.
=------------------------------------------------------------------------------=
