
     Program PWSCF v.6.2.2 starts on  8Apr2018 at 12:20:11 

     This program is part of the open-source Quantum ESPRESSO suite
     for quantum simulation of materials; please cite
         "P. Giannozzi et al., J. Phys.:Condens. Matter 21 395502 (2009);
         "P. Giannozzi et al., J. Phys.:Condens. Matter 29 465901 (2017);
          URL http://www.quantum-espresso.org", 
     in publications or presentations arising from this work. More details at
     http://www.quantum-espresso.org/quote

     Parallel version (MPI), running on     2 processors

     MPI processes distributed on     1 nodes
     R & G space division:  proc/nbgrp/npool/nimage =       2
     Reading input from Conv_acell-ecut.in

     Current dimensions of program PWSCF are:
     Max number of different atomic species (ntypx) = 10
     Max number of k-points (npk) =  40000
     Max angular momentum in pseudopotentials (lmaxx) =  3

     Subspace diagonalization in iterative solution of the eigenvalue problem:
     a serial algorithm will be used

 
     Parallelization info
     --------------------
     sticks:   dense  smooth     PW     G-vecs:    dense   smooth      PW
     Min         200     200     68                 2007     2007     408
     Max         201     201     69                 2008     2008     409
     Sum         401     401    137                 4015     4015     817
 


     bravais-lattice index     =            6
     lattice parameter (alat)  =       9.1100  a.u.
     unit-cell volume          =     506.5589 (a.u.)^3
     number of atoms/cell      =            6
     number of atomic types    =            2
     number of electrons       =        52.00
     number of Kohn-Sham states=           26
     kinetic-energy cutoff     =      15.0000  Ry
     charge density cutoff     =      60.0000  Ry
     convergence threshold     =      1.0E-12
     mixing beta               =       0.7000
     number of iterations used =            8  plain     mixing
     Exchange-correlation      = PBE ( 1  4  3  4 0 0)
     nstep                     =           50


     celldm(1)=   9.110000  celldm(2)=   0.000000  celldm(3)=   0.670000
     celldm(4)=   0.000000  celldm(5)=   0.000000  celldm(6)=   0.000000

     crystal axes: (cart. coord. in units of alat)
               a(1) = (   1.000000   0.000000   0.000000 )  
               a(2) = (   0.000000   1.000000   0.000000 )  
               a(3) = (   0.000000   0.000000   0.670000 )  

     reciprocal axes: (cart. coord. in units 2 pi/alat)
               b(1) = (  1.000000  0.000000  0.000000 )  
               b(2) = (  0.000000  1.000000  0.000000 )  
               b(3) = (  0.000000  0.000000  1.492537 )  


     PseudoPot. # 1 for Sn read from file:
     ../../Pseudo_potentials/Sn_PBE.upf
     MD5 check sum: 78e6386ae56e929f0568ae8bf606a80c
     Pseudo is Norm-conserving + core correction, Zval = 14.0
     Generated using ONCVPSP code by D. R. Hamann
     Using radial grid of 1628 points,  6 beta functions with: 
                l(1) =   0
                l(2) =   0
                l(3) =   1
                l(4) =   1
                l(5) =   2
                l(6) =   2

     PseudoPot. # 2 for O  read from file:
     ../../Pseudo_potentials/O_PBE.upf
     MD5 check sum: 3e3f909f7470e8921608ab6b1f57bbae
     Pseudo is Norm-conserving + core correction, Zval =  6.0
     Generated using ONCVPSP code by D. R. Hamann
     Using radial grid of  936 points,  5 beta functions with: 
                l(1) =   0
                l(2) =   0
                l(3) =   1
                l(4) =   1
                l(5) =   2

     atomic species   valence    mass     pseudopotential
        Sn            14.00   118.71000     Sn( 1.00)
        O              6.00    15.99900     O ( 1.00)

      4 Sym. Ops. (no inversion) found



   Cartesian axes

     site n.     atom                  positions (alat units)
         1           Sn  tau(   1) = (   0.0000000   0.0000000   0.0000000  )
         2           Sn  tau(   2) = (   0.5000000   0.5000000   0.3350000  )
         3           O   tau(   3) = (   0.8060000   0.1930000   0.3350000  )
         4           O   tau(   4) = (   0.1930000   0.8060000   0.3350000  )
         5           O   tau(   5) = (   0.3060000   0.3060000   0.0000000  )
         6           O   tau(   6) = (   0.6930000   0.6930000   0.0000000  )

     number of k points=   301

     Number of k-points >= 100: set verbosity='high' to print them.

     Dense  grid:     4015 G-vectors     FFT dimensions: (  24,  24,  15)

     Estimated max dynamical RAM per process >      36.19 MB

     Estimated total dynamical RAM >      72.37 MB

     Check: negative/imaginary core charge=   -0.005277    0.000000

     Initial potential from superposition of free atoms
     Check: negative starting charge=   -0.053732

     starting charge   51.99690, renormalised to   52.00000

     negative rho (up, down):  5.373E-02 0.000E+00
     Starting wfc are   34 randomized atomic wfcs

     total cpu time spent up to now is        4.8 secs

     Self-consistent Calculation

     iteration #  1     ecut=    15.00 Ry     beta= 0.70
     Davidson diagonalization with overlap
     ethr =  1.00E-02,  avg # of iterations =  3.0

     negative rho (up, down):  1.590E-02 0.000E+00

     total cpu time spent up to now is       19.6 secs

     total energy              =    -393.39333336 Ry
     Harris-Foulkes estimate   =    -412.18005262 Ry
     estimated scf accuracy    <      24.21086633 Ry

     iteration #  2     ecut=    15.00 Ry     beta= 0.70
     Davidson diagonalization with overlap
     ethr =  1.00E-02,  avg # of iterations =  3.3

     negative rho (up, down):  4.804E-03 0.000E+00

     total cpu time spent up to now is       36.3 secs

     total energy              =    -398.11940782 Ry
     Harris-Foulkes estimate   =    -400.45743142 Ry
     estimated scf accuracy    <       3.75963198 Ry

     iteration #  3     ecut=    15.00 Ry     beta= 0.70
     Davidson diagonalization with overlap
     ethr =  7.23E-03,  avg # of iterations =  3.4

     negative rho (up, down):  9.885E-04 0.000E+00

     total cpu time spent up to now is       51.5 secs

     total energy              =    -398.95847768 Ry
     Harris-Foulkes estimate   =    -399.39396362 Ry
     estimated scf accuracy    <       0.79295605 Ry

     iteration #  4     ecut=    15.00 Ry     beta= 0.70
     Davidson diagonalization with overlap
     ethr =  1.52E-03,  avg # of iterations =  2.7

     total cpu time spent up to now is       64.3 secs

     total energy              =    -399.12492933 Ry
     Harris-Foulkes estimate   =    -399.13903663 Ry
     estimated scf accuracy    <       0.03253912 Ry

     iteration #  5     ecut=    15.00 Ry     beta= 0.70
     Davidson diagonalization with overlap
     ethr =  6.26E-05,  avg # of iterations =  2.6

     total cpu time spent up to now is       76.0 secs

     total energy              =    -399.13129653 Ry
     Harris-Foulkes estimate   =    -399.13134178 Ry
     estimated scf accuracy    <       0.00045024 Ry

     iteration #  6     ecut=    15.00 Ry     beta= 0.70
     Davidson diagonalization with overlap
     ethr =  8.66E-07,  avg # of iterations =  3.6

     total cpu time spent up to now is       90.8 secs

     total energy              =    -399.13181165 Ry
     Harris-Foulkes estimate   =    -399.13185546 Ry
     estimated scf accuracy    <       0.00009222 Ry

     iteration #  7     ecut=    15.00 Ry     beta= 0.70
     Davidson diagonalization with overlap
     ethr =  1.77E-07,  avg # of iterations =  3.6

     total cpu time spent up to now is      105.6 secs

     total energy              =    -399.13181892 Ry
     Harris-Foulkes estimate   =    -399.13185565 Ry
     estimated scf accuracy    <       0.00008834 Ry

     iteration #  8     ecut=    15.00 Ry     beta= 0.70
     Davidson diagonalization with overlap
     ethr =  1.70E-07,  avg # of iterations =  3.4

     total cpu time spent up to now is      118.6 secs

     total energy              =    -399.13183547 Ry
     Harris-Foulkes estimate   =    -399.13183776 Ry
     estimated scf accuracy    <       0.00000494 Ry

     iteration #  9     ecut=    15.00 Ry     beta= 0.70
     Davidson diagonalization with overlap
     ethr =  9.51E-09,  avg # of iterations =  3.4

     total cpu time spent up to now is      131.7 secs

     total energy              =    -399.13183649 Ry
     Harris-Foulkes estimate   =    -399.13183682 Ry
     estimated scf accuracy    <       0.00000052 Ry

     iteration # 10     ecut=    15.00 Ry     beta= 0.70
     Davidson diagonalization with overlap
     ethr =  1.01E-09,  avg # of iterations =  3.0

     total cpu time spent up to now is      144.2 secs

     total energy              =    -399.13183658 Ry
     Harris-Foulkes estimate   =    -399.13183661 Ry
     estimated scf accuracy    <       0.00000003 Ry

     iteration # 11     ecut=    15.00 Ry     beta= 0.70
     Davidson diagonalization with overlap
     ethr =  6.65E-11,  avg # of iterations =  3.9

     total cpu time spent up to now is      159.1 secs

     total energy              =    -399.13183658 Ry
     Harris-Foulkes estimate   =    -399.13183660 Ry
     estimated scf accuracy    <       0.00000002 Ry

     iteration # 12     ecut=    15.00 Ry     beta= 0.70
     Davidson diagonalization with overlap
     ethr =  3.63E-11,  avg # of iterations =  3.2

     total cpu time spent up to now is      171.7 secs

     total energy              =    -399.13183659 Ry
     Harris-Foulkes estimate   =    -399.13183659 Ry
     estimated scf accuracy    <          1.6E-10 Ry

     iteration # 13     ecut=    15.00 Ry     beta= 0.70
     Davidson diagonalization with overlap
     ethr =  3.11E-13,  avg # of iterations =  3.4

     total cpu time spent up to now is      186.8 secs

     total energy              =    -399.13183659 Ry
     Harris-Foulkes estimate   =    -399.13183659 Ry
     estimated scf accuracy    <          5.1E-11 Ry

     iteration # 14     ecut=    15.00 Ry     beta= 0.70
     Davidson diagonalization with overlap
     ethr =  1.00E-13,  avg # of iterations =  2.2

     total cpu time spent up to now is      199.6 secs

     total energy              =    -399.13183659 Ry
     Harris-Foulkes estimate   =    -399.13183659 Ry
     estimated scf accuracy    <          1.9E-12 Ry

     iteration # 15     ecut=    15.00 Ry     beta= 0.70
     Davidson diagonalization with overlap
     ethr =  1.00E-13,  avg # of iterations =  1.0

     total cpu time spent up to now is      208.3 secs

     End of self-consistent calculation

     Number of k-points >= 100: set verbosity='high' to print the bands.

     highest occupied level (ev):    13.2876

!    total energy              =    -399.13183659 Ry
     Harris-Foulkes estimate   =    -399.13183659 Ry
     estimated scf accuracy    <          9.0E-14 Ry

     The total energy is the sum of the following terms:

     one-electron contribution =     -51.27047375 Ry
     hartree contribution      =      63.88731733 Ry
     xc contribution           =    -109.26734416 Ry
     ewald contribution        =    -302.48133600 Ry

     convergence has been achieved in  15 iterations

     Forces acting on atoms (cartesian axes, Ry/au):

     atom    1 type  1   force =    -0.00134791   -0.00134791    0.00000000
     atom    2 type  1   force =    -0.00145112   -0.00145112    0.00000000
     atom    3 type  2   force =    -0.02857122    0.03230693    0.00000000
     atom    4 type  2   force =     0.03230693   -0.02857122    0.00000000
     atom    5 type  2   force =    -0.04854411   -0.04854411    0.00000000
     atom    6 type  2   force =     0.04760743    0.04760743    0.00000000

     Total force =     0.113903     Total SCF correction =     0.000000


     Computing stress (Cartesian axis) and pressure

          total   stress  (Ry/bohr**3)                   (kbar)     P=********
  -0.08361056   0.00000681   0.00000000     -12299.54      1.00      0.00
   0.00000681  -0.08361056  -0.00000000          1.00 -12299.54     -0.00
   0.00000000   0.00000000  -0.08024042          0.00      0.00 -11803.77


     BFGS Geometry Optimization

     number of scf cycles    =   1
     number of bfgs steps    =   0

     enthalpy new            =    -399.1318365867 Ry

     new trust radius        =       0.5000000000 bohr
     new conv_thr            =            1.0E-12 Ry

     new unit-cell volume =    357.60530 a.u.^3 (    52.99164 Ang^3 )
     density =      9.44513 g/cm^3

CELL_PARAMETERS (alat=  9.11000000)
   0.888922769   0.000000000   0.000000000
   0.000000000   0.888922769   0.000000000
   0.000000000   0.000000000   0.598578010

ATOMIC_POSITIONS (crystal)
Sn      -0.000007863  -0.000007863   0.000000000
Sn       0.499991535   0.499991535   0.500000000
O        0.805833339   0.193188452   0.500000000
O        0.193188452   0.805833339   0.500000000
O        0.305716833   0.305716833   0.000000000
O        0.693277703   0.693277703   0.000000000



     Writing output data file SnO2.save
     Check: negative starting charge=   -0.053732
     NEW-OLD atomic charge density approx. for the potential

     Check: negative/imaginary core charge=   -0.004868    0.000000
     Check: negative starting charge=   -0.031289

     negative rho (up, down):  3.870E+00 0.000E+00
     extrapolated charge   30.34170, renormalised to   52.00000

     total cpu time spent up to now is      213.4 secs

     Self-consistent Calculation

     iteration #  1     ecut=    15.00 Ry     beta= 0.70
     Davidson diagonalization with overlap
     c_bands:  1 eigenvalues not converged
     c_bands:  1 eigenvalues not converged
     c_bands:  1 eigenvalues not converged
     c_bands:  1 eigenvalues not converged
     c_bands:  1 eigenvalues not converged
     c_bands:  1 eigenvalues not converged
     c_bands:  1 eigenvalues not converged
     c_bands:  1 eigenvalues not converged
     c_bands:  1 eigenvalues not converged
     c_bands:  1 eigenvalues not converged
     c_bands:  1 eigenvalues not converged
     ethr =  1.00E-06,  avg # of iterations = 13.4

     total cpu time spent up to now is      256.8 secs

     total energy              =    -386.24875150 Ry
     Harris-Foulkes estimate   =    -453.50424152 Ry
     estimated scf accuracy    <      76.12097755 Ry

     iteration #  2     ecut=    15.00 Ry     beta= 0.70
     Davidson diagonalization with overlap
     ethr =  1.00E-02,  avg # of iterations =  4.8

     total cpu time spent up to now is      277.1 secs

     total energy              =    -409.94537703 Ry
     Harris-Foulkes estimate   =    -418.87951134 Ry
     estimated scf accuracy    <      12.56768136 Ry

     iteration #  3     ecut=    15.00 Ry     beta= 0.70
     Davidson diagonalization with overlap
     ethr =  1.00E-02,  avg # of iterations =  2.9

     total cpu time spent up to now is      291.7 secs

     total energy              =    -413.09931042 Ry
     Harris-Foulkes estimate   =    -413.22630322 Ry
     estimated scf accuracy    <       0.25134773 Ry

     iteration #  4     ecut=    15.00 Ry     beta= 0.70
     Davidson diagonalization with overlap
     ethr =  4.83E-04,  avg # of iterations =  2.1

     total cpu time spent up to now is      303.9 secs

     total energy              =    -413.12898511 Ry
     Harris-Foulkes estimate   =    -413.15381330 Ry
     estimated scf accuracy    <       0.04236025 Ry

     iteration #  5     ecut=    15.00 Ry     beta= 0.70
     Davidson diagonalization with overlap
     ethr =  8.15E-05,  avg # of iterations =  2.9

     total cpu time spent up to now is      317.7 secs

     total energy              =    -413.13538791 Ry
     Harris-Foulkes estimate   =    -413.14340576 Ry
     estimated scf accuracy    <       0.01455188 Ry

     iteration #  6     ecut=    15.00 Ry     beta= 0.70
     Davidson diagonalization with overlap
     ethr =  2.80E-05,  avg # of iterations =  3.0

     total cpu time spent up to now is      331.2 secs

     total energy              =    -413.13896605 Ry
     Harris-Foulkes estimate   =    -413.13974216 Ry
     estimated scf accuracy    <       0.00161673 Ry

     iteration #  7     ecut=    15.00 Ry     beta= 0.70
     Davidson diagonalization with overlap
     ethr =  3.11E-06,  avg # of iterations =  2.6

     total cpu time spent up to now is      343.1 secs

     total energy              =    -413.13927256 Ry
     Harris-Foulkes estimate   =    -413.13927352 Ry
     estimated scf accuracy    <       0.00000282 Ry

     iteration #  8     ecut=    15.00 Ry     beta= 0.70
     Davidson diagonalization with overlap
     ethr =  5.43E-09,  avg # of iterations =  3.9

     total cpu time spent up to now is      360.9 secs

     total energy              =    -413.13927630 Ry
     Harris-Foulkes estimate   =    -413.13927689 Ry
     estimated scf accuracy    <       0.00000115 Ry

     iteration #  9     ecut=    15.00 Ry     beta= 0.70
     Davidson diagonalization with overlap
     ethr =  2.22E-09,  avg # of iterations =  3.0

     total cpu time spent up to now is      373.6 secs

     total energy              =    -413.13927653 Ry
     Harris-Foulkes estimate   =    -413.13927659 Ry
     estimated scf accuracy    <       0.00000012 Ry

     iteration # 10     ecut=    15.00 Ry     beta= 0.70
     Davidson diagonalization with overlap
     ethr =  2.31E-10,  avg # of iterations =  3.0

     total cpu time spent up to now is      387.2 secs

     total energy              =    -413.13927655 Ry
     Harris-Foulkes estimate   =    -413.13927656 Ry
     estimated scf accuracy    <       0.00000002 Ry

     iteration # 11     ecut=    15.00 Ry     beta= 0.70
     Davidson diagonalization with overlap
     ethr =  3.02E-11,  avg # of iterations =  3.0

     total cpu time spent up to now is      399.6 secs

     total energy              =    -413.13927655 Ry
     Harris-Foulkes estimate   =    -413.13927656 Ry
     estimated scf accuracy    <          1.0E-09 Ry

     iteration # 12     ecut=    15.00 Ry     beta= 0.70
     Davidson diagonalization with overlap
     ethr =  2.00E-12,  avg # of iterations =  3.0

     total cpu time spent up to now is      412.0 secs

     total energy              =    -413.13927655 Ry
     Harris-Foulkes estimate   =    -413.13927655 Ry
     estimated scf accuracy    <          4.0E-11 Ry

     iteration # 13     ecut=    15.00 Ry     beta= 0.70
     Davidson diagonalization with overlap
     ethr =  1.00E-13,  avg # of iterations =  2.3

     total cpu time spent up to now is      425.2 secs

     total energy              =    -413.13927655 Ry
     Harris-Foulkes estimate   =    -413.13927655 Ry
     estimated scf accuracy    <          4.1E-12 Ry

     iteration # 14     ecut=    15.00 Ry     beta= 0.70
     Davidson diagonalization with overlap
     ethr =  1.00E-13,  avg # of iterations =  1.0

     total cpu time spent up to now is      433.8 secs

     End of self-consistent calculation

     Number of k-points >= 100: set verbosity='high' to print the bands.

     highest occupied level (ev):    20.4950

!    total energy              =    -413.13927655 Ry
     Harris-Foulkes estimate   =    -413.13927655 Ry
     estimated scf accuracy    <          1.5E-13 Ry

     The total energy is the sum of the following terms:

     one-electron contribution =     -18.82329001 Ry
     hartree contribution      =      60.32095192 Ry
     xc contribution           =    -114.72154907 Ry
     ewald contribution        =    -339.91538940 Ry

     convergence has been achieved in  14 iterations

     Forces acting on atoms (cartesian axes, Ry/au):

     atom    1 type  1   force =    -0.00102895   -0.00102895    0.00000000
     atom    2 type  1   force =    -0.00038937   -0.00038937    0.00000000
     atom    3 type  2   force =    -0.08326676    0.07893298    0.00000000
     atom    4 type  2   force =     0.07893298   -0.08326676    0.00000000
     atom    5 type  2   force =    -0.08706307   -0.08706307    0.00000000
     atom    6 type  2   force =     0.09281517    0.09281517    0.00000000

     Total force =     0.242321     Total SCF correction =     0.000000


     Computing stress (Cartesian axis) and pressure

          total   stress  (Ry/bohr**3)                   (kbar)     P=********
  -0.10643267  -0.00000973   0.00000000     -15656.78     -1.43      0.00
  -0.00000973  -0.10643267   0.00000000         -1.43 -15656.78      0.00
   0.00000000   0.00000000  -0.10126200          0.00      0.00 -14896.15


     number of scf cycles    =   2
     number of bfgs steps    =   1

     enthalpy old            =    -399.1318365867 Ry
     enthalpy new            =    -413.1392765540 Ry

     CASE: enthalpy_new < enthalpy_old


     WARNING: bfgs curvature condition failed, Theta= 0.711
     uphill step: resetting bfgs history

     new trust radius        =       0.7088987999 bohr
     new conv_thr            =            1.0E-12 Ry

     new unit-cell volume =    194.00682 a.u.^3 (    28.74884 Ang^3 )
     density =     17.40985 g/cm^3

CELL_PARAMETERS (alat=  9.11000000)
   0.722306921   0.000000000   0.000000000
   0.000000000   0.722306921   0.000000000
   0.000000000   0.000000000   0.491833737

ATOMIC_POSITIONS (crystal)
Sn      -0.000016813  -0.000016813   0.000000000
Sn       0.499988148   0.499988148   0.500000000
O        0.805109025   0.193875067   0.500000000
O        0.193875067   0.805109025   0.500000000
O        0.304959497   0.304959497   0.000000000
O        0.694085075   0.694085075   0.000000000



     Writing output data file SnO2.save
     Check: negative starting charge=   -0.031289
     NEW-OLD atomic charge density approx. for the potential

     Check: negative/imaginary core charge=   -0.002634    0.000000
     Check: negative starting charge=   -0.002666

     negative rho (up, down):  1.154E+01 0.000E+00
     extrapolated charge    8.15301, renormalised to   52.00000

     total cpu time spent up to now is      439.0 secs

     Self-consistent Calculation

     iteration #  1     ecut=    15.00 Ry     beta= 0.70
     Davidson diagonalization with overlap
     ethr =  1.00E-06,  avg # of iterations = 14.6

     negative rho (up, down):  1.128E+01 0.000E+00

     total cpu time spent up to now is      492.6 secs

     total energy              =    -468.24793489 Ry
     Harris-Foulkes estimate   =    -774.97761477 Ry
     estimated scf accuracy    <    1462.82560655 Ry

     iteration #  2     ecut=    15.00 Ry     beta= 0.70
     Davidson diagonalization with overlap
     ethr =  1.00E-02,  avg # of iterations =  5.9

     total cpu time spent up to now is      515.0 secs

     total energy              =    -393.85914993 Ry
     Harris-Foulkes estimate   =    -477.57204293 Ry
     estimated scf accuracy    <     107.63470174 Ry

     iteration #  3     ecut=    15.00 Ry     beta= 0.70
     Davidson diagonalization with overlap
     ethr =  1.00E-02,  avg # of iterations =  4.7

     total cpu time spent up to now is      536.0 secs

     total energy              =    -432.19509167 Ry
     Harris-Foulkes estimate   =    -445.22903527 Ry
     estimated scf accuracy    <      36.46381217 Ry

     iteration #  4     ecut=    15.00 Ry     beta= 0.70
     Davidson diagonalization with overlap
     ethr =  1.00E-02,  avg # of iterations =  4.0

     total cpu time spent up to now is      551.7 secs

     total energy              =    -429.34064637 Ry
     Harris-Foulkes estimate   =    -434.23800658 Ry
     estimated scf accuracy    <       9.57814078 Ry

     iteration #  5     ecut=    15.00 Ry     beta= 0.70
     Davidson diagonalization with overlap
     ethr =  1.00E-02,  avg # of iterations =  2.4

     total cpu time spent up to now is      563.6 secs

     total energy              =    -428.86860807 Ry
     Harris-Foulkes estimate   =    -429.81089689 Ry
     estimated scf accuracy    <       2.40401066 Ry

     iteration #  6     ecut=    15.00 Ry     beta= 0.70
     Davidson diagonalization with overlap
     ethr =  4.62E-03,  avg # of iterations =  1.7

     negative rho (up, down):  7.951E-03 0.000E+00

     total cpu time spent up to now is      573.9 secs

     total energy              =    -428.35750126 Ry
     Harris-Foulkes estimate   =    -428.97404848 Ry
     estimated scf accuracy    <       0.88948106 Ry

     iteration #  7     ecut=    15.00 Ry     beta= 0.70
     Davidson diagonalization with overlap
     ethr =  1.71E-03,  avg # of iterations =  2.2

     negative rho (up, down):  1.693E-04 0.000E+00

     total cpu time spent up to now is      586.0 secs

     total energy              =    -428.47855834 Ry
     Harris-Foulkes estimate   =    -428.50268582 Ry
     estimated scf accuracy    <       0.05691441 Ry

     iteration #  8     ecut=    15.00 Ry     beta= 0.70
     Davidson diagonalization with overlap
     ethr =  1.09E-04,  avg # of iterations =  1.9

     total cpu time spent up to now is      595.9 secs

     total energy              =    -428.47907266 Ry
     Harris-Foulkes estimate   =    -428.48191227 Ry
     estimated scf accuracy    <       0.01068569 Ry

     iteration #  9     ecut=    15.00 Ry     beta= 0.70
     Davidson diagonalization with overlap
     ethr =  2.05E-05,  avg # of iterations =  2.0

     total cpu time spent up to now is      605.8 secs

     total energy              =    -428.47799336 Ry
     Harris-Foulkes estimate   =    -428.47974121 Ry
     estimated scf accuracy    <       0.00335991 Ry

     iteration # 10     ecut=    15.00 Ry     beta= 0.70
     Davidson diagonalization with overlap
     ethr =  6.46E-06,  avg # of iterations =  2.0

     total cpu time spent up to now is      616.1 secs

     total energy              =    -428.47784850 Ry
     Harris-Foulkes estimate   =    -428.47825187 Ry
     estimated scf accuracy    <       0.00057393 Ry

     iteration # 11     ecut=    15.00 Ry     beta= 0.70
     Davidson diagonalization with overlap
     ethr =  1.10E-06,  avg # of iterations =  2.1

     total cpu time spent up to now is      628.1 secs

     total energy              =    -428.47792835 Ry
     Harris-Foulkes estimate   =    -428.47793670 Ry
     estimated scf accuracy    <       0.00001375 Ry

     iteration # 12     ecut=    15.00 Ry     beta= 0.70
     Davidson diagonalization with overlap
     ethr =  2.64E-08,  avg # of iterations =  2.2

     total cpu time spent up to now is      641.5 secs

     total energy              =    -428.47793115 Ry
     Harris-Foulkes estimate   =    -428.47793119 Ry
     estimated scf accuracy    <       0.00000008 Ry

     iteration # 13     ecut=    15.00 Ry     beta= 0.70
     Davidson diagonalization with overlap
     ethr =  1.60E-10,  avg # of iterations =  3.0

     total cpu time spent up to now is      656.0 secs

     total energy              =    -428.47793118 Ry
     Harris-Foulkes estimate   =    -428.47793118 Ry
     estimated scf accuracy    <          3.0E-09 Ry

     iteration # 14     ecut=    15.00 Ry     beta= 0.70
     Davidson diagonalization with overlap
     ethr =  5.72E-12,  avg # of iterations =  2.1

     total cpu time spent up to now is      668.8 secs

     total energy              =    -428.47793118 Ry
     Harris-Foulkes estimate   =    -428.47793118 Ry
     estimated scf accuracy    <          1.9E-10 Ry

     iteration # 15     ecut=    15.00 Ry     beta= 0.70
     Davidson diagonalization with overlap
     ethr =  3.63E-13,  avg # of iterations =  2.1

     total cpu time spent up to now is      681.1 secs

     total energy              =    -428.47793118 Ry
     Harris-Foulkes estimate   =    -428.47793118 Ry
     estimated scf accuracy    <          1.5E-11 Ry

     iteration # 16     ecut=    15.00 Ry     beta= 0.70
     Davidson diagonalization with overlap
     ethr =  1.00E-13,  avg # of iterations =  1.8

     total cpu time spent up to now is      690.7 secs

     End of self-consistent calculation

     Number of k-points >= 100: set verbosity='high' to print the bands.

     highest occupied level (ev):    39.6977

!    total energy              =    -428.47793118 Ry
     Harris-Foulkes estimate   =    -428.47793118 Ry
     estimated scf accuracy    <          2.8E-13 Ry

     The total energy is the sum of the following terms:

     one-electron contribution =      61.99399546 Ry
     hartree contribution      =      52.64846541 Ry
     xc contribution           =    -125.77823390 Ry
     ewald contribution        =    -417.34215814 Ry

     convergence has been achieved in  16 iterations

     Forces acting on atoms (cartesian axes, Ry/au):

     atom    1 type  1   force =    -0.01416070   -0.01416070    0.00000000
     atom    2 type  1   force =    -0.00694806   -0.00694806    0.00000000
     atom    3 type  2   force =    -0.24428105    0.23326661    0.00000000
     atom    4 type  2   force =     0.23326661   -0.24428105    0.00000000
     atom    5 type  2   force =    -0.21593786   -0.21593786    0.00000000
     atom    6 type  2   force =     0.24806106    0.24806106    0.00000000

     Total force =     0.667081     Total SCF correction =     0.000003


     Computing stress (Cartesian axis) and pressure

          total   stress  (Ry/bohr**3)                   (kbar)     P=-5576.19
  -0.04449548   0.00009639   0.00000000      -6545.51     14.18      0.00
   0.00009639  -0.04449548   0.00000000         14.18  -6545.51      0.00
   0.00000000   0.00000000  -0.02472753          0.00      0.00  -3637.55


     number of scf cycles    =   3
     number of bfgs steps    =   2

     enthalpy old            =    -413.1392765540 Ry
     enthalpy new            =    -428.4779311760 Ry

     CASE: enthalpy_new < enthalpy_old

     new trust radius        =       0.7038290274 bohr
     new conv_thr            =            1.0E-12 Ry

     new unit-cell volume =    134.57638 a.u.^3 (    19.94216 Ang^3 )
     density =     25.09823 g/cm^3

CELL_PARAMETERS (alat=  9.11000000)
   0.539812136   0.000000000   0.000000000
   0.000000000   0.539812136   0.000000000
   0.000000000   0.000000000   0.610841334

ATOMIC_POSITIONS (crystal)
Sn      -0.001856253  -0.001856253   0.000000000
Sn       0.499081456   0.499081456   0.500000000
O        0.775735585   0.221944934   0.500000000
O        0.221944934   0.775735585   0.500000000
O        0.279478526   0.279478526   0.000000000
O        0.723615752   0.723615752   0.000000000



     Writing output data file SnO2.save
     Check: negative starting charge=   -0.002666
     NEW-OLD atomic charge density approx. for the potential

     Check: negative/imaginary core charge=   -0.002621    0.000000
     Check: negative starting charge=   -0.000335

     negative rho (up, down):  6.523E-01 0.000E+00
     extrapolated charge   29.03758, renormalised to   52.00000

     total cpu time spent up to now is      695.8 secs

     Self-consistent Calculation

     iteration #  1     ecut=    15.00 Ry     beta= 0.70
     Davidson diagonalization with overlap
     ethr =  1.00E-06,  avg # of iterations = 12.3

     total cpu time spent up to now is      738.3 secs

     total energy              =    -400.40904981 Ry
     Harris-Foulkes estimate   =    -403.78502991 Ry
     estimated scf accuracy    <      17.02404347 Ry

     iteration #  2     ecut=    15.00 Ry     beta= 0.70
     Davidson diagonalization with overlap
     ethr =  1.00E-02,  avg # of iterations =  3.7

     total cpu time spent up to now is      755.7 secs

     total energy              =    -408.41514577 Ry
     Harris-Foulkes estimate   =    -411.29645437 Ry
     estimated scf accuracy    <       5.00565408 Ry

     iteration #  3     ecut=    15.00 Ry     beta= 0.70
     Davidson diagonalization with overlap
     ethr =  9.63E-03,  avg # of iterations =  2.4

     total cpu time spent up to now is      767.1 secs

     total energy              =    -408.88796566 Ry
     Harris-Foulkes estimate   =    -409.02084727 Ry
     estimated scf accuracy    <       0.22878622 Ry

     iteration #  4     ecut=    15.00 Ry     beta= 0.70
     Davidson diagonalization with overlap
     ethr =  4.40E-04,  avg # of iterations =  3.4

     total cpu time spent up to now is      782.6 secs

     total energy              =    -408.96419240 Ry
     Harris-Foulkes estimate   =    -408.96780966 Ry
     estimated scf accuracy    <       0.00774190 Ry

     iteration #  5     ecut=    15.00 Ry     beta= 0.70
     Davidson diagonalization with overlap
     ethr =  1.49E-05,  avg # of iterations =  2.9

     total cpu time spent up to now is      795.9 secs

     total energy              =    -408.96496420 Ry
     Harris-Foulkes estimate   =    -408.96555229 Ry
     estimated scf accuracy    <       0.00094061 Ry

     iteration #  6     ecut=    15.00 Ry     beta= 0.70
     Davidson diagonalization with overlap
     ethr =  1.81E-06,  avg # of iterations =  2.9

     total cpu time spent up to now is      809.9 secs

     total energy              =    -408.96513137 Ry
     Harris-Foulkes estimate   =    -408.96515753 Ry
     estimated scf accuracy    <       0.00004355 Ry

     iteration #  7     ecut=    15.00 Ry     beta= 0.70
     Davidson diagonalization with overlap
     ethr =  8.38E-08,  avg # of iterations =  3.1

     total cpu time spent up to now is      824.0 secs

     total energy              =    -408.96514131 Ry
     Harris-Foulkes estimate   =    -408.96514246 Ry
     estimated scf accuracy    <       0.00000402 Ry

     iteration #  8     ecut=    15.00 Ry     beta= 0.70
     Davidson diagonalization with overlap
     ethr =  7.73E-09,  avg # of iterations =  3.1

     total cpu time spent up to now is      837.7 secs

     total energy              =    -408.96514185 Ry
     Harris-Foulkes estimate   =    -408.96514212 Ry
     estimated scf accuracy    <       0.00000047 Ry

     iteration #  9     ecut=    15.00 Ry     beta= 0.70
     Davidson diagonalization with overlap
     ethr =  9.03E-10,  avg # of iterations =  2.4

     total cpu time spent up to now is      849.7 secs

     total energy              =    -408.96514191 Ry
     Harris-Foulkes estimate   =    -408.96514193 Ry
     estimated scf accuracy    <       0.00000003 Ry

     iteration # 10     ecut=    15.00 Ry     beta= 0.70
     Davidson diagonalization with overlap
     ethr =  5.75E-11,  avg # of iterations =  3.0

     total cpu time spent up to now is      863.3 secs

     total energy              =    -408.96514192 Ry
     Harris-Foulkes estimate   =    -408.96514192 Ry
     estimated scf accuracy    <          4.8E-10 Ry

     iteration # 11     ecut=    15.00 Ry     beta= 0.70
     Davidson diagonalization with overlap
     ethr =  9.22E-13,  avg # of iterations =  3.4

     total cpu time spent up to now is      877.7 secs

     total energy              =    -408.96514192 Ry
     Harris-Foulkes estimate   =    -408.96514192 Ry
     estimated scf accuracy    <          6.8E-12 Ry

     iteration # 12     ecut=    15.00 Ry     beta= 0.70
     Davidson diagonalization with overlap
     ethr =  1.00E-13,  avg # of iterations =  1.5

     total cpu time spent up to now is      886.8 secs

     End of self-consistent calculation

     Number of k-points >= 100: set verbosity='high' to print the bands.

     highest occupied level (ev):    63.8096

!    total energy              =    -408.96514192 Ry
     Harris-Foulkes estimate   =    -408.96514192 Ry
     estimated scf accuracy    <          3.5E-13 Ry

     The total energy is the sum of the following terms:

     one-electron contribution =     146.26828007 Ry
     hartree contribution      =      37.36535162 Ry
     xc contribution           =    -130.89178699 Ry
     ewald contribution        =    -461.70698662 Ry

     convergence has been achieved in  12 iterations

     Forces acting on atoms (cartesian axes, Ry/au):

     atom    1 type  1   force =     0.88421282    0.88421282    0.00000000
     atom    2 type  1   force =     0.01418913    0.01418913    0.00000000
     atom    3 type  2   force =     8.70592447   -8.68320958    0.00000000
     atom    4 type  2   force =    -8.68320958    8.70592447    0.00000000
     atom    5 type  2   force =     8.06473429    8.06473429    0.00000000
     atom    6 type  2   force =    -8.98585113   -8.98585113    0.00000000

     Total force =    24.403227     Total SCF correction =     0.000002


     Computing stress (Cartesian axis) and pressure

          total   stress  (Ry/bohr**3)                   (kbar)     P=31094.36
   0.43064189  -0.00252406   0.00000000      63349.60   -371.30      0.00
  -0.00252406   0.43064189   0.00000000       -371.30  63349.60      0.00
   0.00000000   0.00000000  -0.22715813          0.00      0.00 -33416.11


     number of scf cycles    =   4
     number of bfgs steps    =   3

     enthalpy old            =    -428.4779311760 Ry
     enthalpy new            =    -408.9651419180 Ry

     CASE: enthalpy_new > enthalpy_old

     new trust radius        =       0.0603843134 bohr
     new conv_thr            =            1.0E-12 Ry

     new unit-cell volume =    190.00784 a.u.^3 (    28.15626 Ang^3 )
     density =     17.77626 g/cm^3

CELL_PARAMETERS (alat=  9.11000000)
   0.708257696   0.000000000   0.000000000
   0.000000000   0.708257696   0.000000000
   0.000000000   0.000000000   0.500995448

ATOMIC_POSITIONS (crystal)
Sn      -0.000158421  -0.000158421   0.000000000
Sn       0.499918347   0.499918347   0.500000000
O        0.802847733   0.196036005   0.500000000
O        0.196036005   0.802847733   0.500000000
O        0.302997863   0.302997863   0.000000000
O        0.696358472   0.696358472   0.000000000



     Writing output data file SnO2.save
     Check: negative starting charge=   -0.000335
     NEW-OLD atomic charge density approx. for the potential

     Check: negative/imaginary core charge=   -0.002537    0.000000
     Check: negative starting charge=   -0.002008
     extrapolated charge   67.16919, renormalised to   52.00000

     total cpu time spent up to now is      891.9 secs

     Self-consistent Calculation

     iteration #  1     ecut=    15.00 Ry     beta= 0.70
     Davidson diagonalization with overlap
     c_bands:  1 eigenvalues not converged
     c_bands:  1 eigenvalues not converged
     ethr =  1.00E-06,  avg # of iterations = 15.2

     total cpu time spent up to now is      933.9 secs

     total energy              =    -424.56475490 Ry
     Harris-Foulkes estimate   =    -427.93231791 Ry
     estimated scf accuracy    <       1.84543223 Ry

     iteration #  2     ecut=    15.00 Ry     beta= 0.70
     Davidson diagonalization with overlap
     ethr =  3.55E-03,  avg # of iterations =  4.3

     total cpu time spent up to now is      954.5 secs

     total energy              =    -429.00010641 Ry
     Harris-Foulkes estimate   =    -430.14418619 Ry
     estimated scf accuracy    <       3.01373092 Ry

     iteration #  3     ecut=    15.00 Ry     beta= 0.70
     Davidson diagonalization with overlap
     ethr =  3.55E-03,  avg # of iterations =  1.4

     total cpu time spent up to now is      963.8 secs

     total energy              =    -428.49402063 Ry
     Harris-Foulkes estimate   =    -429.09466245 Ry
     estimated scf accuracy    <       0.95593882 Ry

     iteration #  4     ecut=    15.00 Ry     beta= 0.70
     Davidson diagonalization with overlap
     ethr =  1.84E-03,  avg # of iterations =  2.0

     total cpu time spent up to now is      976.6 secs

     total energy              =    -428.65506329 Ry
     Harris-Foulkes estimate   =    -428.65590563 Ry
     estimated scf accuracy    <       0.00231222 Ry

     iteration #  5     ecut=    15.00 Ry     beta= 0.70
     Davidson diagonalization with overlap
     ethr =  4.45E-06,  avg # of iterations =  2.7

     total cpu time spent up to now is      991.0 secs

     total energy              =    -428.65569551 Ry
     Harris-Foulkes estimate   =    -428.65616840 Ry
     estimated scf accuracy    <       0.00079391 Ry

     iteration #  6     ecut=    15.00 Ry     beta= 0.70
     Davidson diagonalization with overlap
     ethr =  1.53E-06,  avg # of iterations =  2.0

     total cpu time spent up to now is     1003.4 secs

     total energy              =    -428.65579889 Ry
     Harris-Foulkes estimate   =    -428.65585410 Ry
     estimated scf accuracy    <       0.00008399 Ry

     iteration #  7     ecut=    15.00 Ry     beta= 0.70
     Davidson diagonalization with overlap
     ethr =  1.62E-07,  avg # of iterations =  2.1

     total cpu time spent up to now is     1016.4 secs

     total energy              =    -428.65581523 Ry
     Harris-Foulkes estimate   =    -428.65581761 Ry
     estimated scf accuracy    <       0.00000506 Ry

     iteration #  8     ecut=    15.00 Ry     beta= 0.70
     Davidson diagonalization with overlap
     ethr =  9.73E-09,  avg # of iterations =  2.0

     total cpu time spent up to now is     1028.8 secs

     total energy              =    -428.65581619 Ry
     Harris-Foulkes estimate   =    -428.65581629 Ry
     estimated scf accuracy    <       0.00000023 Ry

     iteration #  9     ecut=    15.00 Ry     beta= 0.70
     Davidson diagonalization with overlap
     ethr =  4.37E-10,  avg # of iterations =  2.0

     total cpu time spent up to now is     1040.5 secs

     total energy              =    -428.65581621 Ry
     Harris-Foulkes estimate   =    -428.65581622 Ry
     estimated scf accuracy    <       0.00000002 Ry

     iteration # 10     ecut=    15.00 Ry     beta= 0.70
     Davidson diagonalization with overlap
     ethr =  4.53E-11,  avg # of iterations =  2.1

     total cpu time spent up to now is     1053.6 secs

     total energy              =    -428.65581621 Ry
     Harris-Foulkes estimate   =    -428.65581621 Ry
     estimated scf accuracy    <          1.0E-09 Ry

     iteration # 11     ecut=    15.00 Ry     beta= 0.70
     Davidson diagonalization with overlap
     ethr =  2.01E-12,  avg # of iterations =  2.1

     total cpu time spent up to now is     1066.2 secs

     total energy              =    -428.65581621 Ry
     Harris-Foulkes estimate   =    -428.65581621 Ry
     estimated scf accuracy    <          6.6E-11 Ry

     iteration # 12     ecut=    15.00 Ry     beta= 0.70
     Davidson diagonalization with overlap
     ethr =  1.27E-13,  avg # of iterations =  2.1

     total cpu time spent up to now is     1078.4 secs

     End of self-consistent calculation

     Number of k-points >= 100: set verbosity='high' to print the bands.

     highest occupied level (ev):    40.6672

!    total energy              =    -428.65581621 Ry
     Harris-Foulkes estimate   =    -428.65581621 Ry
     estimated scf accuracy    <          8.0E-13 Ry

     The total energy is the sum of the following terms:

     one-electron contribution =      68.31827620 Ry
     hartree contribution      =      50.99974609 Ry
     xc contribution           =    -126.08539583 Ry
     ewald contribution        =    -421.88844268 Ry

     convergence has been achieved in  12 iterations

     Forces acting on atoms (cartesian axes, Ry/au):

     atom    1 type  1   force =    -0.00301617   -0.00301617    0.00000000
     atom    2 type  1   force =    -0.00068969   -0.00068969    0.00000000
     atom    3 type  2   force =     0.02802275   -0.03596834    0.00000000
     atom    4 type  2   force =    -0.03596834    0.02802275    0.00000000
     atom    5 type  2   force =     0.04025873    0.04025873    0.00000000
     atom    6 type  2   force =    -0.02860728   -0.02860728    0.00000000

     Total force =     0.095160     Total SCF correction =     0.000003


     Computing stress (Cartesian axis) and pressure

          total   stress  (Ry/bohr**3)                   (kbar)     P=-4651.01
  -0.02853340   0.00007327   0.00000000      -4197.41     10.78      0.00
   0.00007327  -0.02853340   0.00000000         10.78  -4197.41      0.00
   0.00000000   0.00000000  -0.03778388          0.00      0.00  -5558.20


     number of scf cycles    =   5
     number of bfgs steps    =   3

     enthalpy old            =    -428.4779311760 Ry
     enthalpy new            =    -428.6558162140 Ry

     CASE: enthalpy_new < enthalpy_old

     new trust radius        =       0.1640582479 bohr
     new conv_thr            =            1.0E-12 Ry

     new unit-cell volume =    169.65709 a.u.^3 (    25.14059 Ang^3 )
     density =     19.90856 g/cm^3

CELL_PARAMETERS (alat=  9.11000000)
   0.690103485   0.000000000   0.000000000
   0.000000000   0.690103485   0.000000000
   0.000000000   0.000000000   0.471181733

ATOMIC_POSITIONS (crystal)
Sn      -0.000598948  -0.000598948   0.000000000
Sn       0.499747157   0.499747157   0.500000000
O        0.801288968   0.196985810   0.500000000
O        0.196985810   0.801288968   0.500000000
O        0.302803647   0.302803647   0.000000000
O        0.697773367   0.697773367   0.000000000



     Writing output data file SnO2.save
     Check: negative starting charge=   -0.002008
     NEW-OLD atomic charge density approx. for the potential

     Check: negative/imaginary core charge=   -0.002000    0.000000
     Check: negative starting charge=   -0.000588
     extrapolated charge   45.76286, renormalised to   52.00000

     total cpu time spent up to now is     1083.5 secs

     Self-consistent Calculation

     iteration #  1     ecut=    15.00 Ry     beta= 0.70
     Davidson diagonalization with overlap
     ethr =  1.00E-06,  avg # of iterations =  5.3

     total cpu time spent up to now is     1108.6 secs

     total energy              =    -427.99000093 Ry
     Harris-Foulkes estimate   =    -429.21336744 Ry
     estimated scf accuracy    <       0.87011539 Ry

     iteration #  2     ecut=    15.00 Ry     beta= 0.70
     Davidson diagonalization with overlap
     ethr =  1.67E-03,  avg # of iterations =  3.1

     total cpu time spent up to now is     1123.8 secs

     total energy              =    -428.78274724 Ry
     Harris-Foulkes estimate   =    -428.94758219 Ry
     estimated scf accuracy    <       0.35028739 Ry

     iteration #  3     ecut=    15.00 Ry     beta= 0.70
     Davidson diagonalization with overlap
     ethr =  6.74E-04,  avg # of iterations =  2.1

     total cpu time spent up to now is     1134.2 secs

     total energy              =    -428.79095639 Ry
     Harris-Foulkes estimate   =    -428.81124081 Ry
     estimated scf accuracy    <       0.03595938 Ry

     iteration #  4     ecut=    15.00 Ry     beta= 0.70
     Davidson diagonalization with overlap
     ethr =  6.92E-05,  avg # of iterations =  2.6

     total cpu time spent up to now is     1147.8 secs

     total energy              =    -428.79771298 Ry
     Harris-Foulkes estimate   =    -428.79778139 Ry
     estimated scf accuracy    <       0.00016501 Ry

     iteration #  5     ecut=    15.00 Ry     beta= 0.70
     Davidson diagonalization with overlap
     ethr =  3.17E-07,  avg # of iterations =  2.7

     total cpu time spent up to now is     1161.8 secs

     total energy              =    -428.79772507 Ry
     Harris-Foulkes estimate   =    -428.79775565 Ry
     estimated scf accuracy    <       0.00005647 Ry

     iteration #  6     ecut=    15.00 Ry     beta= 0.70
     Davidson diagonalization with overlap
     ethr =  1.09E-07,  avg # of iterations =  2.1

     total cpu time spent up to now is     1173.0 secs

     total energy              =    -428.79772769 Ry
     Harris-Foulkes estimate   =    -428.79773140 Ry
     estimated scf accuracy    <       0.00000697 Ry

     iteration #  7     ecut=    15.00 Ry     beta= 0.70
     Davidson diagonalization with overlap
     ethr =  1.34E-08,  avg # of iterations =  2.2

     total cpu time spent up to now is     1185.5 secs

     total energy              =    -428.79772831 Ry
     Harris-Foulkes estimate   =    -428.79772863 Ry
     estimated scf accuracy    <       0.00000048 Ry

     iteration #  8     ecut=    15.00 Ry     beta= 0.70
     Davidson diagonalization with overlap
     ethr =  9.15E-10,  avg # of iterations =  2.6

     total cpu time spent up to now is     1199.4 secs

     total energy              =    -428.79772842 Ry
     Harris-Foulkes estimate   =    -428.79772842 Ry
     estimated scf accuracy    <          9.6E-09 Ry

     iteration #  9     ecut=    15.00 Ry     beta= 0.70
     Davidson diagonalization with overlap
     ethr =  1.85E-11,  avg # of iterations =  2.1

     total cpu time spent up to now is     1210.9 secs

     total energy              =    -428.79772842 Ry
     Harris-Foulkes estimate   =    -428.79772842 Ry
     estimated scf accuracy    <          3.0E-09 Ry

     iteration # 10     ecut=    15.00 Ry     beta= 0.70
     Davidson diagonalization with overlap
     ethr =  5.78E-12,  avg # of iterations =  2.2

     total cpu time spent up to now is     1224.1 secs

     total energy              =    -428.79772842 Ry
     Harris-Foulkes estimate   =    -428.79772842 Ry
     estimated scf accuracy    <          1.2E-11 Ry

     iteration # 11     ecut=    15.00 Ry     beta= 0.70
     Davidson diagonalization with overlap
     ethr =  1.00E-13,  avg # of iterations =  2.2

     total cpu time spent up to now is     1234.7 secs

     End of self-consistent calculation

     Number of k-points >= 100: set verbosity='high' to print the bands.

     highest occupied level (ev):    45.7100

!    total energy              =    -428.79772842 Ry
     Harris-Foulkes estimate   =    -428.79772842 Ry
     estimated scf accuracy    <          5.0E-13 Ry

     The total energy is the sum of the following terms:

     one-electron contribution =      86.47449875 Ry
     hartree contribution      =      49.88866086 Ry
     xc contribution           =    -128.26424985 Ry
     ewald contribution        =    -436.89663818 Ry

     convergence has been achieved in  11 iterations

     Forces acting on atoms (cartesian axes, Ry/au):

     atom    1 type  1   force =     0.06552289    0.06552289    0.00000000
     atom    2 type  1   force =     0.02195585    0.02195585    0.00000000
     atom    3 type  2   force =    -0.10595814    0.10682468    0.00000000
     atom    4 type  2   force =     0.10682468   -0.10595814    0.00000000
     atom    5 type  2   force =    -0.17455781   -0.17455781    0.00000000
     atom    6 type  2   force =     0.08621252    0.08621252    0.00000000

     Total force =     0.361433     Total SCF correction =     0.000003


     Computing stress (Cartesian axis) and pressure

          total   stress  (Ry/bohr**3)                   (kbar)     P= 2916.90
   0.01311193  -0.00016341   0.00000000       1928.83    -24.04      0.00
  -0.00016341   0.01311193   0.00000000        -24.04   1928.83      0.00
   0.00000000   0.00000000   0.03326216          0.00      0.00   4893.03


     number of scf cycles    =   6
     number of bfgs steps    =   4

     enthalpy old            =    -428.6558162140 Ry
     enthalpy new            =    -428.7977284201 Ry

     CASE: enthalpy_new < enthalpy_old

     new trust radius        =       0.0922054008 bohr
     new conv_thr            =            1.0E-12 Ry

     new unit-cell volume =    176.47819 a.u.^3 (    26.15137 Ang^3 )
     density =     19.13907 g/cm^3

CELL_PARAMETERS (alat=  9.11000000)
   0.691704708   0.000000000   0.000000000
   0.000000000   0.691704708   0.000000000
   0.000000000   0.000000000   0.487859151

ATOMIC_POSITIONS (crystal)
Sn       0.003487355   0.003487355   0.000000000
Sn       0.501200806   0.501200806   0.500000000
O        0.803688871   0.194617045   0.500000000
O        0.194617045   0.803688871   0.500000000
O        0.300849456   0.300849456   0.000000000
O        0.694156466   0.694156466   0.000000000



     Writing output data file SnO2.save
     Check: negative starting charge=   -0.000588
     NEW-OLD atomic charge density approx. for the potential

     Check: negative/imaginary core charge=   -0.002196    0.000000
     Check: negative starting charge=   -0.000867

     negative rho (up, down):  2.763E-04 0.000E+00
     extrapolated charge   54.00975, renormalised to   52.00000

     total cpu time spent up to now is     1240.0 secs

     Self-consistent Calculation

     iteration #  1     ecut=    15.00 Ry     beta= 0.70
     Davidson diagonalization with overlap
     ethr =  1.00E-06,  avg # of iterations =  6.4

     negative rho (up, down):  5.022E-05 0.000E+00

     total cpu time spent up to now is     1265.6 secs

     total energy              =    -428.77182892 Ry
     Harris-Foulkes estimate   =    -428.75391130 Ry
     estimated scf accuracy    <       0.08636639 Ry

     iteration #  2     ecut=    15.00 Ry     beta= 0.70
     Davidson diagonalization with overlap
     ethr =  1.66E-04,  avg # of iterations =  3.3

     negative rho (up, down):  1.010E-05 0.000E+00

     total cpu time spent up to now is     1281.9 secs

     total energy              =    -428.87338067 Ry
     Harris-Foulkes estimate   =    -428.89630710 Ry
     estimated scf accuracy    <       0.05037844 Ry

     iteration #  3     ecut=    15.00 Ry     beta= 0.70
     Davidson diagonalization with overlap
     ethr =  9.69E-05,  avg # of iterations =  1.6

     total cpu time spent up to now is     1291.5 secs

     total energy              =    -428.87204931 Ry
     Harris-Foulkes estimate   =    -428.87654831 Ry
     estimated scf accuracy    <       0.00774266 Ry

     iteration #  4     ecut=    15.00 Ry     beta= 0.70
     Davidson diagonalization with overlap
     ethr =  1.49E-05,  avg # of iterations =  2.3

     total cpu time spent up to now is     1304.7 secs

     total energy              =    -428.87349812 Ry
     Harris-Foulkes estimate   =    -428.87351465 Ry
     estimated scf accuracy    <       0.00003826 Ry

     iteration #  5     ecut=    15.00 Ry     beta= 0.70
     Davidson diagonalization with overlap
     ethr =  7.36E-08,  avg # of iterations =  2.6

     total cpu time spent up to now is     1318.9 secs

     total energy              =    -428.87350569 Ry
     Harris-Foulkes estimate   =    -428.87350927 Ry
     estimated scf accuracy    <       0.00000762 Ry

     iteration #  6     ecut=    15.00 Ry     beta= 0.70
     Davidson diagonalization with overlap
     ethr =  1.47E-08,  avg # of iterations =  2.0

     total cpu time spent up to now is     1329.4 secs

     total energy              =    -428.87350521 Ry
     Harris-Foulkes estimate   =    -428.87350633 Ry
     estimated scf accuracy    <       0.00000189 Ry

     iteration #  7     ecut=    15.00 Ry     beta= 0.70
     Davidson diagonalization with overlap
     ethr =  3.64E-09,  avg # of iterations =  2.2

     total cpu time spent up to now is     1342.0 secs

     total energy              =    -428.87350545 Ry
     Harris-Foulkes estimate   =    -428.87350548 Ry
     estimated scf accuracy    <       0.00000005 Ry

     iteration #  8     ecut=    15.00 Ry     beta= 0.70
     Davidson diagonalization with overlap
     ethr =  9.15E-11,  avg # of iterations =  2.7

     total cpu time spent up to now is     1356.5 secs

     total energy              =    -428.87350546 Ry
     Harris-Foulkes estimate   =    -428.87350546 Ry
     estimated scf accuracy    <          1.5E-09 Ry

     iteration #  9     ecut=    15.00 Ry     beta= 0.70
     Davidson diagonalization with overlap
     ethr =  2.83E-12,  avg # of iterations =  2.1

     total cpu time spent up to now is     1368.8 secs

     total energy              =    -428.87350546 Ry
     Harris-Foulkes estimate   =    -428.87350546 Ry
     estimated scf accuracy    <          3.4E-10 Ry

     iteration # 10     ecut=    15.00 Ry     beta= 0.70
     Davidson diagonalization with overlap
     ethr =  6.54E-13,  avg # of iterations =  2.0

     total cpu time spent up to now is     1380.1 secs

     total energy              =    -428.87350546 Ry
     Harris-Foulkes estimate   =    -428.87350546 Ry
     estimated scf accuracy    <          1.5E-11 Ry

     iteration # 11     ecut=    15.00 Ry     beta= 0.70
     Davidson diagonalization with overlap
     ethr =  1.00E-13,  avg # of iterations =  2.1

     total cpu time spent up to now is     1390.2 secs

     End of self-consistent calculation

     Number of k-points >= 100: set verbosity='high' to print the bands.

     highest occupied level (ev):    43.9470

!    total energy              =    -428.87350546 Ry
     Harris-Foulkes estimate   =    -428.87350546 Ry
     estimated scf accuracy    <          4.6E-13 Ry

     The total energy is the sum of the following terms:

     one-electron contribution =      80.96498495 Ry
     hartree contribution      =      49.84287112 Ry
     xc contribution           =    -127.46950086 Ry
     ewald contribution        =    -432.21186067 Ry

     convergence has been achieved in  11 iterations

     Forces acting on atoms (cartesian axes, Ry/au):

     atom    1 type  1   force =    -0.32809394   -0.32809394    0.00000000
     atom    2 type  1   force =    -0.05569230   -0.05569230    0.00000000
     atom    3 type  2   force =    -0.08448208   -0.02750220    0.00000000
     atom    4 type  2   force =    -0.02750220   -0.08448208    0.00000000
     atom    5 type  2   force =     0.29895263    0.29895263    0.00000000
     atom    6 type  2   force =     0.19681788    0.19681788    0.00000000

     Total force =     0.702497     Total SCF correction =     0.000004


     Computing stress (Cartesian axis) and pressure

          total   stress  (Ry/bohr**3)                   (kbar)     P= -108.77
   0.00021550   0.00082864   0.00000000         31.70    121.90      0.00
   0.00082864   0.00021550  -0.00000000        121.90     31.70     -0.00
   0.00000000   0.00000000  -0.00264918          0.00      0.00   -389.71


     number of scf cycles    =   7
     number of bfgs steps    =   5

     enthalpy old            =    -428.7977284201 Ry
     enthalpy new            =    -428.8735054614 Ry

     CASE: enthalpy_new < enthalpy_old

     new trust radius        =       0.1918461243 bohr
     new conv_thr            =            1.0E-12 Ry

     new unit-cell volume =    183.35329 a.u.^3 (    27.17015 Ang^3 )
     density =     18.42143 g/cm^3

CELL_PARAMETERS (alat=  9.11000000)
   0.695604114   0.000000000   0.000000000
   0.000000000   0.695604114   0.000000000
   0.000000000   0.000000000   0.501197957

ATOMIC_POSITIONS (crystal)
Sn      -0.018040409  -0.018040409   0.000000000
Sn       0.498223473   0.498223473   0.500000000
O        0.797896557   0.191845104   0.500000000
O        0.191845104   0.797896557   0.500000000
O        0.320573582   0.320573582   0.000000000
O        0.707501694   0.707501694   0.000000000



     Writing output data file SnO2.save
     Check: negative starting charge=   -0.000867
     NEW-OLD atomic charge density approx. for the potential

     Check: negative/imaginary core charge=   -0.002332    0.000000
     Check: negative starting charge=   -0.000106

     negative rho (up, down):  5.593E-03 0.000E+00
     extrapolated charge   53.94970, renormalised to   52.00000

     total cpu time spent up to now is     1395.4 secs

     Self-consistent Calculation

     iteration #  1     ecut=    15.00 Ry     beta= 0.70
     Davidson diagonalization with overlap
     ethr =  1.00E-06,  avg # of iterations =  7.8

     negative rho (up, down):  9.421E-04 0.000E+00

     total cpu time spent up to now is     1426.9 secs

     total energy              =    -428.23017414 Ry
     Harris-Foulkes estimate   =    -428.13941681 Ry
     estimated scf accuracy    <       0.17504937 Ry

     iteration #  2     ecut=    15.00 Ry     beta= 0.70
     Davidson diagonalization with overlap
     ethr =  3.37E-04,  avg # of iterations =  3.1

     negative rho (up, down):  6.578E-05 0.000E+00

     total cpu time spent up to now is     1442.0 secs

     total energy              =    -428.33520033 Ry
     Harris-Foulkes estimate   =    -428.36176482 Ry
     estimated scf accuracy    <       0.05605016 Ry

     iteration #  3     ecut=    15.00 Ry     beta= 0.70
     Davidson diagonalization with overlap
     ethr =  1.08E-04,  avg # of iterations =  2.0

     total cpu time spent up to now is     1453.0 secs

     total energy              =    -428.33924362 Ry
     Harris-Foulkes estimate   =    -428.34083583 Ry
     estimated scf accuracy    <       0.00422968 Ry

     iteration #  4     ecut=    15.00 Ry     beta= 0.70
     Davidson diagonalization with overlap
     ethr =  8.13E-06,  avg # of iterations =  2.4

     total cpu time spent up to now is     1466.7 secs

     total energy              =    -428.33993712 Ry
     Harris-Foulkes estimate   =    -428.34000290 Ry
     estimated scf accuracy    <       0.00015150 Ry

     iteration #  5     ecut=    15.00 Ry     beta= 0.70
     Davidson diagonalization with overlap
     ethr =  2.91E-07,  avg # of iterations =  3.0

     total cpu time spent up to now is     1480.9 secs

     total energy              =    -428.33996510 Ry
     Harris-Foulkes estimate   =    -428.33997727 Ry
     estimated scf accuracy    <       0.00002323 Ry

     iteration #  6     ecut=    15.00 Ry     beta= 0.70
     Davidson diagonalization with overlap
     ethr =  4.47E-08,  avg # of iterations =  2.6

     total cpu time spent up to now is     1494.3 secs

     total energy              =    -428.33996910 Ry
     Harris-Foulkes estimate   =    -428.33997035 Ry
     estimated scf accuracy    <       0.00000235 Ry

     iteration #  7     ecut=    15.00 Ry     beta= 0.70
     Davidson diagonalization with overlap
     ethr =  4.52E-09,  avg # of iterations =  2.2

     total cpu time spent up to now is     1506.8 secs

     total energy              =    -428.33996960 Ry
     Harris-Foulkes estimate   =    -428.33996962 Ry
     estimated scf accuracy    <       0.00000004 Ry

     iteration #  8     ecut=    15.00 Ry     beta= 0.70
     Davidson diagonalization with overlap
     ethr =  7.22E-11,  avg # of iterations =  2.8

     total cpu time spent up to now is     1520.9 secs

     total energy              =    -428.33996961 Ry
     Harris-Foulkes estimate   =    -428.33996962 Ry
     estimated scf accuracy    <          4.6E-09 Ry

     iteration #  9     ecut=    15.00 Ry     beta= 0.70
     Davidson diagonalization with overlap
     ethr =  8.77E-12,  avg # of iterations =  2.6

     total cpu time spent up to now is     1534.4 secs

     total energy              =    -428.33996962 Ry
     Harris-Foulkes estimate   =    -428.33996962 Ry
     estimated scf accuracy    <          5.8E-10 Ry

     iteration # 10     ecut=    15.00 Ry     beta= 0.70
     Davidson diagonalization with overlap
     ethr =  1.11E-12,  avg # of iterations =  2.4

     total cpu time spent up to now is     1547.2 secs

     total energy              =    -428.33996962 Ry
     Harris-Foulkes estimate   =    -428.33996962 Ry
     estimated scf accuracy    <          8.6E-12 Ry

     iteration # 11     ecut=    15.00 Ry     beta= 0.70
     Davidson diagonalization with overlap
     ethr =  1.00E-13,  avg # of iterations =  1.5

     total cpu time spent up to now is     1556.3 secs

     End of self-consistent calculation

     Number of k-points >= 100: set verbosity='high' to print the bands.

     highest occupied level (ev):    42.4698

!    total energy              =    -428.33996962 Ry
     Harris-Foulkes estimate   =    -428.33996962 Ry
     estimated scf accuracy    <          3.3E-13 Ry

     The total energy is the sum of the following terms:

     one-electron contribution =      73.27310607 Ry
     hartree contribution      =      50.90904305 Ry
     xc contribution           =    -126.76428425 Ry
     ewald contribution        =    -425.75783449 Ry

     convergence has been achieved in  11 iterations

     Forces acting on atoms (cartesian axes, Ry/au):

     atom    1 type  1   force =     1.97903005    1.97903005    0.00000000
     atom    2 type  1   force =     0.28483456    0.28483456    0.00000000
     atom    3 type  2   force =     0.34865745   -0.02407737    0.00000000
     atom    4 type  2   force =    -0.02407737    0.34865745    0.00000000
     atom    5 type  2   force =    -0.98552282   -0.98552282    0.00000000
     atom    6 type  2   force =    -1.60292187   -1.60292187    0.00000000

     Total force =     3.914191     Total SCF correction =     0.000002


     Computing stress (Cartesian axis) and pressure

          total   stress  (Ry/bohr**3)                   (kbar)     P=-2180.54
  -0.00744420   0.00370522   0.00000000      -1095.08    545.06      0.00
   0.00370522  -0.00744420   0.00000000        545.06  -1095.08      0.00
   0.00000000   0.00000000  -0.02958068          0.00      0.00  -4351.47


     number of scf cycles    =   8
     number of bfgs steps    =   6

     enthalpy old            =    -428.8735054614 Ry
     enthalpy new            =    -428.3399696156 Ry

     CASE: enthalpy_new > enthalpy_old

     new trust radius        =       0.0256538506 bohr
     new conv_thr            =            1.0E-12 Ry

     new unit-cell volume =    177.38545 a.u.^3 (    26.28581 Ang^3 )
     density =     19.04119 g/cm^3

CELL_PARAMETERS (alat=  9.11000000)
   0.692223218   0.000000000   0.000000000
   0.000000000   0.692223218   0.000000000
   0.000000000   0.000000000   0.489632830

ATOMIC_POSITIONS (crystal)
Sn       0.000624779   0.000624779   0.000000000
Sn       0.500804906   0.500804906   0.500000000
O        0.802918659   0.194248456   0.500000000
O        0.194248456   0.802918659   0.500000000
O        0.303472200   0.303472200   0.000000000
O        0.695930999   0.695930999   0.000000000



     Writing output data file SnO2.save
     Check: negative starting charge=   -0.000106
     NEW-OLD atomic charge density approx. for the potential

     Check: negative/imaginary core charge=   -0.002222    0.000000
     Check: negative starting charge=   -0.000941

     negative rho (up, down):  5.922E-03 0.000E+00
     extrapolated charge   50.25065, renormalised to   52.00000

     total cpu time spent up to now is     1561.4 secs

     Self-consistent Calculation

     iteration #  1     ecut=    15.00 Ry     beta= 0.70
     Davidson diagonalization with overlap
     ethr =  1.00E-06,  avg # of iterations =  6.9

     negative rho (up, down):  4.963E-04 0.000E+00

     total cpu time spent up to now is     1590.8 secs

     total energy              =    -428.79560680 Ry
     Harris-Foulkes estimate   =    -429.03270973 Ry
     estimated scf accuracy    <       0.17018310 Ry

     iteration #  2     ecut=    15.00 Ry     beta= 0.70
     Davidson diagonalization with overlap
     ethr =  3.27E-04,  avg # of iterations =  3.0

     negative rho (up, down):  5.315E-05 0.000E+00

     total cpu time spent up to now is     1605.7 secs

     total energy              =    -428.88056996 Ry
     Harris-Foulkes estimate   =    -428.90137525 Ry
     estimated scf accuracy    <       0.04228342 Ry

     iteration #  3     ecut=    15.00 Ry     beta= 0.70
     Davidson diagonalization with overlap
     ethr =  8.13E-05,  avg # of iterations =  2.1

     total cpu time spent up to now is     1617.7 secs

     total energy              =    -428.88522692 Ry
     Harris-Foulkes estimate   =    -428.88611147 Ry
     estimated scf accuracy    <       0.00255224 Ry

     iteration #  4     ecut=    15.00 Ry     beta= 0.70
     Davidson diagonalization with overlap
     ethr =  4.91E-06,  avg # of iterations =  2.3

     total cpu time spent up to now is     1631.1 secs

     total energy              =    -428.88558816 Ry
     Harris-Foulkes estimate   =    -428.88588536 Ry
     estimated scf accuracy    <       0.00054691 Ry

     iteration #  5     ecut=    15.00 Ry     beta= 0.70
     Davidson diagonalization with overlap
     ethr =  1.05E-06,  avg # of iterations =  2.0

     total cpu time spent up to now is     1643.6 secs

     total energy              =    -428.88571534 Ry
     Harris-Foulkes estimate   =    -428.88572425 Ry
     estimated scf accuracy    <       0.00001999 Ry

     iteration #  6     ecut=    15.00 Ry     beta= 0.70
     Davidson diagonalization with overlap
     ethr =  3.84E-08,  avg # of iterations =  2.1

     total cpu time spent up to now is     1656.1 secs

     total energy              =    -428.88571875 Ry
     Harris-Foulkes estimate   =    -428.88571932 Ry
     estimated scf accuracy    <       0.00000154 Ry

     iteration #  7     ecut=    15.00 Ry     beta= 0.70
     Davidson diagonalization with overlap
     ethr =  2.96E-09,  avg # of iterations =  2.1

     total cpu time spent up to now is     1669.1 secs

     total energy              =    -428.88571903 Ry
     Harris-Foulkes estimate   =    -428.88571905 Ry
     estimated scf accuracy    <       0.00000005 Ry

     iteration #  8     ecut=    15.00 Ry     beta= 0.70
     Davidson diagonalization with overlap
     ethr =  9.51E-11,  avg # of iterations =  2.9

     total cpu time spent up to now is     1682.5 secs

     total energy              =    -428.88571904 Ry
     Harris-Foulkes estimate   =    -428.88571904 Ry
     estimated scf accuracy    <          4.6E-09 Ry

     iteration #  9     ecut=    15.00 Ry     beta= 0.70
     Davidson diagonalization with overlap
     ethr =  8.77E-12,  avg # of iterations =  2.9

     total cpu time spent up to now is     1695.0 secs

     total energy              =    -428.88571904 Ry
     Harris-Foulkes estimate   =    -428.88571904 Ry
     estimated scf accuracy    <          4.4E-10 Ry

     iteration # 10     ecut=    15.00 Ry     beta= 0.70
     Davidson diagonalization with overlap
     ethr =  8.38E-13,  avg # of iterations =  2.2

     total cpu time spent up to now is     1708.1 secs

     total energy              =    -428.88571904 Ry
     Harris-Foulkes estimate   =    -428.88571904 Ry
     estimated scf accuracy    <          4.2E-12 Ry

     iteration # 11     ecut=    15.00 Ry     beta= 0.70
     Davidson diagonalization with overlap
     ethr =  1.00E-13,  avg # of iterations =  1.1

     total cpu time spent up to now is     1716.9 secs

     End of self-consistent calculation

     Number of k-points >= 100: set verbosity='high' to print the bands.

     highest occupied level (ev):    43.7134

!    total energy              =    -428.88571904 Ry
     Harris-Foulkes estimate   =    -428.88571904 Ry
     estimated scf accuracy    <          2.2E-13 Ry

     The total energy is the sum of the following terms:

     one-electron contribution =      80.26625600 Ry
     hartree contribution      =      49.83690210 Ry
     xc contribution           =    -127.36608170 Ry
     ewald contribution        =    -431.62279543 Ry

     convergence has been achieved in  11 iterations

     Forces acting on atoms (cartesian axes, Ry/au):

     atom    1 type  1   force =    -0.02445413   -0.02445413    0.00000000
     atom    2 type  1   force =    -0.00269510   -0.00269510    0.00000000
     atom    3 type  2   force =    -0.02281161   -0.02339564    0.00000000
     atom    4 type  2   force =    -0.02339564   -0.02281161    0.00000000
     atom    5 type  2   force =     0.06824320    0.06824320    0.00000000
     atom    6 type  2   force =     0.00511327    0.00511327    0.00000000

     Total force =     0.112750     Total SCF correction =     0.000001


     Computing stress (Cartesian axis) and pressure

          total   stress  (Ry/bohr**3)                   (kbar)     P= -491.25
  -0.00172100   0.00031223   0.00000000       -253.17     45.93      0.00
   0.00031223  -0.00172100   0.00000000         45.93   -253.17      0.00
   0.00000000   0.00000000  -0.00657643          0.00      0.00   -967.43


     number of scf cycles    =   9
     number of bfgs steps    =   6

     enthalpy old            =    -428.8735054614 Ry
     enthalpy new            =    -428.8857190410 Ry

     CASE: enthalpy_new < enthalpy_old

     new trust radius        =       0.0260480559 bohr
     new conv_thr            =            1.0E-12 Ry

     new unit-cell volume =    176.40100 a.u.^3 (    26.13993 Ang^3 )
     density =     19.14745 g/cm^3

CELL_PARAMETERS (alat=  9.11000000)
   0.693437875   0.000000000   0.000000000
   0.000000000   0.693437875   0.000000000
   0.000000000   0.000000000   0.485211176

ATOMIC_POSITIONS (crystal)
Sn       0.001623895   0.001623895   0.000000000
Sn       0.501149217   0.501149217   0.500000000
O        0.798863414   0.195033731   0.500000000
O        0.195033731   0.798863414   0.500000000
O        0.304074895   0.304074895   0.000000000
O        0.697254847   0.697254847   0.000000000



     Writing output data file SnO2.save
     Check: negative starting charge=   -0.000941
     NEW-OLD atomic charge density approx. for the potential

     Check: negative/imaginary core charge=   -0.002183    0.000000
     Check: negative starting charge=   -0.000886
     extrapolated charge   51.70982, renormalised to   52.00000

     total cpu time spent up to now is     1721.9 secs

     Self-consistent Calculation

     iteration #  1     ecut=    15.00 Ry     beta= 0.70
     Davidson diagonalization with overlap
     ethr =  1.00E-06,  avg # of iterations =  5.1

     total cpu time spent up to now is     1744.4 secs

     total energy              =    -428.88851703 Ry
     Harris-Foulkes estimate   =    -428.91058895 Ry
     estimated scf accuracy    <       0.00298370 Ry

     iteration #  2     ecut=    15.00 Ry     beta= 0.70
     Davidson diagonalization with overlap
     ethr =  5.74E-06,  avg # of iterations =  3.1

     total cpu time spent up to now is     1759.4 secs

     total energy              =    -428.89067105 Ry
     Harris-Foulkes estimate   =    -428.89117945 Ry
     estimated scf accuracy    <       0.00108003 Ry

     iteration #  3     ecut=    15.00 Ry     beta= 0.70
     Davidson diagonalization with overlap
     ethr =  2.08E-06,  avg # of iterations =  2.1

     total cpu time spent up to now is     1770.3 secs

     total energy              =    -428.89073439 Ry
     Harris-Foulkes estimate   =    -428.89077760 Ry
     estimated scf accuracy    <       0.00009851 Ry

     iteration #  4     ecut=    15.00 Ry     beta= 0.70
     Davidson diagonalization with overlap
     ethr =  1.89E-07,  avg # of iterations =  2.3

     total cpu time spent up to now is     1783.6 secs

     total energy              =    -428.89074981 Ry
     Harris-Foulkes estimate   =    -428.89075475 Ry
     estimated scf accuracy    <       0.00000902 Ry

     iteration #  5     ecut=    15.00 Ry     beta= 0.70
     Davidson diagonalization with overlap
     ethr =  1.74E-08,  avg # of iterations =  2.6

     total cpu time spent up to now is     1796.9 secs

     total energy              =    -428.89075196 Ry
     Harris-Foulkes estimate   =    -428.89075227 Ry
     estimated scf accuracy    <       0.00000065 Ry

     iteration #  6     ecut=    15.00 Ry     beta= 0.70
     Davidson diagonalization with overlap
     ethr =  1.26E-09,  avg # of iterations =  2.0

     total cpu time spent up to now is     1808.8 secs

     total energy              =    -428.89075203 Ry
     Harris-Foulkes estimate   =    -428.89075206 Ry
     estimated scf accuracy    <       0.00000007 Ry

     iteration #  7     ecut=    15.00 Ry     beta= 0.70
     Davidson diagonalization with overlap
     ethr =  1.32E-10,  avg # of iterations =  2.2

     total cpu time spent up to now is     1821.3 secs

     total energy              =    -428.89075204 Ry
     Harris-Foulkes estimate   =    -428.89075204 Ry
     estimated scf accuracy    <          3.9E-09 Ry

     iteration #  8     ecut=    15.00 Ry     beta= 0.70
     Davidson diagonalization with overlap
     ethr =  7.41E-12,  avg # of iterations =  2.4

     total cpu time spent up to now is     1834.5 secs

     total energy              =    -428.89075204 Ry
     Harris-Foulkes estimate   =    -428.89075204 Ry
     estimated scf accuracy    <          8.7E-11 Ry

     iteration #  9     ecut=    15.00 Ry     beta= 0.70
     Davidson diagonalization with overlap
     ethr =  1.68E-13,  avg # of iterations =  2.9

     total cpu time spent up to now is     1848.5 secs

     total energy              =    -428.89075204 Ry
     Harris-Foulkes estimate   =    -428.89075204 Ry
     estimated scf accuracy    <          3.4E-11 Ry

     iteration # 10     ecut=    15.00 Ry     beta= 0.70
     Davidson diagonalization with overlap
     ethr =  1.00E-13,  avg # of iterations =  2.1

     total cpu time spent up to now is     1859.8 secs

     End of self-consistent calculation

     Number of k-points >= 100: set verbosity='high' to print the bands.

     highest occupied level (ev):    43.9767

!    total energy              =    -428.89075204 Ry
     Harris-Foulkes estimate   =    -428.89075204 Ry
     estimated scf accuracy    <          2.1E-13 Ry

     The total energy is the sum of the following terms:

     one-electron contribution =      80.79678585 Ry
     hartree contribution      =      49.94268034 Ry
     xc contribution           =    -127.49138314 Ry
     ewald contribution        =    -432.13883509 Ry

     convergence has been achieved in  10 iterations

     Forces acting on atoms (cartesian axes, Ry/au):

     atom    1 type  1   force =     0.01247685    0.01247685    0.00000000
     atom    2 type  1   force =     0.03960205    0.03960205    0.00000000
     atom    3 type  2   force =     0.01894623   -0.10383277    0.00000000
     atom    4 type  2   force =    -0.10383277    0.01894623    0.00000000
     atom    5 type  2   force =    -0.01230575   -0.01230575    0.00000000
     atom    6 type  2   force =     0.04511339    0.04511339    0.00000000

     Total force =     0.173498     Total SCF correction =     0.000001


     Computing stress (Cartesian axis) and pressure

          total   stress  (Ry/bohr**3)                   (kbar)     P=  -51.76
  -0.00035135  -0.00066057   0.00000000        -51.69    -97.17      0.00
  -0.00066057  -0.00035135   0.00000000        -97.17    -51.69      0.00
   0.00000000   0.00000000  -0.00035287          0.00      0.00    -51.91


     number of scf cycles    =  10
     number of bfgs steps    =   7

     enthalpy old            =    -428.8857190410 Ry
     enthalpy new            =    -428.8907520361 Ry

     CASE: enthalpy_new < enthalpy_old

     new trust radius        =       0.0574062784 bohr
     new conv_thr            =            1.0E-12 Ry

     new unit-cell volume =    174.64891 a.u.^3 (    25.88030 Ang^3 )
     density =     19.33954 g/cm^3

CELL_PARAMETERS (alat=  9.11000000)
   0.693814809   0.000000000   0.000000000
   0.000000000   0.693814809   0.000000000
   0.000000000   0.000000000   0.479870008

ATOMIC_POSITIONS (crystal)
Sn       0.004150651   0.004150651   0.000000000
Sn       0.505166927   0.505166927   0.500000000
O        0.794339917   0.187152332   0.500000000
O        0.187152332   0.794339917   0.500000000
O        0.303742917   0.303742917   0.000000000
O        0.703447256   0.703447256   0.000000000



     Writing output data file SnO2.save
     Check: negative starting charge=   -0.000886
     NEW-OLD atomic charge density approx. for the potential

     Check: negative/imaginary core charge=   -0.002107    0.000000
     Check: negative starting charge=   -0.000753
     extrapolated charge   51.47836, renormalised to   52.00000

     total cpu time spent up to now is     1864.9 secs

     Self-consistent Calculation

     iteration #  1     ecut=    15.00 Ry     beta= 0.70
     Davidson diagonalization with overlap
     ethr =  1.00E-06,  avg # of iterations =  5.9

     total cpu time spent up to now is     1889.2 secs

     total energy              =    -428.89014195 Ry
     Harris-Foulkes estimate   =    -428.93340053 Ry
[...]
     Diagonalizing with lowered threshold

     Davidson diagonalization with overlap
     ethr =  7.12E-10,  avg # of iterations =  3.8

     total cpu time spent up to now is     4676.5 secs

     total energy              =    -430.56079825 Ry
     Harris-Foulkes estimate   =    -430.56028113 Ry
     estimated scf accuracy    <       0.00000020 Ry

     iteration #  2     ecut=    15.00 Ry     beta= 0.70
     Davidson diagonalization with overlap
     ethr =  3.90E-10,  avg # of iterations =  3.5

     total cpu time spent up to now is     4692.3 secs

     total energy              =    -430.56079835 Ry
     Harris-Foulkes estimate   =    -430.56079843 Ry
     estimated scf accuracy    <       0.00000015 Ry

     iteration #  3     ecut=    15.00 Ry     beta= 0.70
     Davidson diagonalization with overlap
     ethr =  2.93E-10,  avg # of iterations =  2.9

     total cpu time spent up to now is     4704.3 secs

     total energy              =    -430.56079837 Ry
     Harris-Foulkes estimate   =    -430.56079838 Ry
     estimated scf accuracy    <          6.5E-09 Ry

     iteration #  4     ecut=    15.00 Ry     beta= 0.70
     Davidson diagonalization with overlap
     ethr =  1.26E-11,  avg # of iterations =  2.2

     total cpu time spent up to now is     4717.4 secs

     total energy              =    -430.56079837 Ry
     Harris-Foulkes estimate   =    -430.56079837 Ry
     estimated scf accuracy    <          1.2E-09 Ry

     iteration #  5     ecut=    15.00 Ry     beta= 0.70
     Davidson diagonalization with overlap
     ethr =  2.30E-12,  avg # of iterations =  2.9

     total cpu time spent up to now is     4731.6 secs

     total energy              =    -430.56079837 Ry
     Harris-Foulkes estimate   =    -430.56079837 Ry
     estimated scf accuracy    <          2.0E-10 Ry

     iteration #  6     ecut=    15.00 Ry     beta= 0.70
     Davidson diagonalization with overlap
     ethr =  3.91E-13,  avg # of iterations =  2.6

     total cpu time spent up to now is     4744.1 secs

     total energy              =    -430.56079837 Ry
     Harris-Foulkes estimate   =    -430.56079837 Ry
     estimated scf accuracy    <          1.2E-11 Ry

     iteration #  7     ecut=    15.00 Ry     beta= 0.70
     Davidson diagonalization with overlap
     ethr =  1.00E-13,  avg # of iterations =  1.7

     total cpu time spent up to now is     4753.4 secs

     End of self-consistent calculation

     Number of k-points >= 100: set verbosity='high' to print the bands.

     highest occupied level (ev):    45.0707

!    total energy              =    -430.56079837 Ry
     Harris-Foulkes estimate   =    -430.56079837 Ry
     estimated scf accuracy    <          8.4E-13 Ry

     The total energy is the sum of the following terms:

     one-electron contribution =     107.54407285 Ry
     hartree contribution      =      40.88646961 Ry
     xc contribution           =    -127.40406893 Ry
     ewald contribution        =    -451.58727190 Ry

     convergence has been achieved in   7 iterations

     Forces acting on atoms (cartesian axes, Ry/au):

     atom    1 type  1   force =     0.00036811    0.00036811    0.00000000
     atom    2 type  1   force =    -0.00213780   -0.00213780    0.00000000
     atom    3 type  2   force =    -0.00040384    0.00108164    0.00000000
     atom    4 type  2   force =     0.00108164   -0.00040384    0.00000000
     atom    5 type  2   force =    -0.00117097   -0.00117097    0.00000000
     atom    6 type  2   force =     0.00226287    0.00226287    0.00000000

     Total force =     0.005006     Total SCF correction =     0.000004


     Computing stress (Cartesian axis) and pressure

          total   stress  (Ry/bohr**3)                   (kbar)     P=    4.14
  -0.00001539   0.03486323   0.00000000         -2.26   5128.56      0.00
   0.03486323  -0.00001539   0.00000000       5128.56     -2.26      0.00
   0.00000000   0.00000000   0.00011527          0.00      0.00     16.96


     bfgs converged in  30 scf cycles and  25 bfgs steps
     (criteria: energy <  1.0E-10 Ry, force <  1.0E-09Ry/Bohr, cell <  5.0E-01kbar)

     End of BFGS Geometry Optimization

     Final enthalpy =    -430.5607983747 Ry
Begin final coordinates
     new unit-cell volume =    167.41656 a.u.^3 (    24.80857 Ang^3 )
     density =     20.17500 g/cm^3

CELL_PARAMETERS (alat=  9.11000000)
   0.683520807   0.000000000   0.000000000
   0.000000000   0.683520807   0.000000000
   0.000000000   0.000000000   0.473957940

ATOMIC_POSITIONS (crystal)
Sn       0.062531883   0.062531883   0.000000000
Sn       0.565395614   0.565395614   0.500000000
O        0.667294579   0.093280421   0.500000000
O        0.093280421   0.667294579   0.500000000
O        0.358313090   0.358313090   0.000000000
O        0.751184414   0.751184414   0.000000000
End final coordinates



     A final scf calculation at the relaxed structure.
     The G-vectors are recalculated for the final unit cell
     Results may differ from those at the preceding step.
 
     Parallelization info
     --------------------
     sticks:   dense  smooth     PW     G-vecs:    dense   smooth      PW
     Min          92      92     34                  661      661     160
     Max          93      93     35                  662      662     163
     Sum         185     185     69                 1323     1323     323
 


     bravais-lattice index     =            6
     lattice parameter (alat)  =       9.1100  a.u.
     unit-cell volume          =     167.4166 (a.u.)^3
     number of atoms/cell      =            6
     number of atomic types    =            2
     number of electrons       =        52.00
     number of Kohn-Sham states=           26
     kinetic-energy cutoff     =      15.0000  Ry
     charge density cutoff     =      60.0000  Ry
     convergence threshold     =      1.0E-12
     mixing beta               =       0.7000
     number of iterations used =            8  plain     mixing
     Exchange-correlation      = PBE ( 1  4  3  4 0 0)

     celldm(1)=   9.110000  celldm(2)=   0.000000  celldm(3)=   0.670000
     celldm(4)=   0.000000  celldm(5)=   0.000000  celldm(6)=   0.000000

     crystal axes: (cart. coord. in units of alat)
               a(1) = (   0.683521   0.000000   0.000000 )  
               a(2) = (   0.000000   0.683521   0.000000 )  
               a(3) = (   0.000000   0.000000   0.473958 )  

     reciprocal axes: (cart. coord. in units 2 pi/alat)
               b(1) = (  1.463013  0.000000  0.000000 )  
               b(2) = (  0.000000  1.463013  0.000000 )  
               b(3) = (  0.000000  0.000000  2.109892 )  


     PseudoPot. # 1 for Sn read from file:
     ../../Pseudo_potentials/Sn_PBE.upf
     MD5 check sum: 78e6386ae56e929f0568ae8bf606a80c
     Pseudo is Norm-conserving + core correction, Zval = 14.0
     Generated using ONCVPSP code by D. R. Hamann
     Using radial grid of 1628 points,  6 beta functions with: 
                l(1) =   0
                l(2) =   0
                l(3) =   1
                l(4) =   1
                l(5) =   2
                l(6) =   2

     PseudoPot. # 2 for O  read from file:
     ../../Pseudo_potentials/O_PBE.upf
     MD5 check sum: 3e3f909f7470e8921608ab6b1f57bbae
     Pseudo is Norm-conserving + core correction, Zval =  6.0
     Generated using ONCVPSP code by D. R. Hamann
     Using radial grid of  936 points,  5 beta functions with: 
                l(1) =   0
                l(2) =   0
                l(3) =   1
                l(4) =   1
                l(5) =   2

     atomic species   valence    mass     pseudopotential
        Sn            14.00   118.71000     Sn( 1.00)
        O              6.00    15.99900     O ( 1.00)

      4 Sym. Ops. (no inversion) found



   Cartesian axes

     site n.     atom                  positions (alat units)
         1           Sn  tau(   1) = (   0.0427418   0.0427418   0.0000000  )
         2           Sn  tau(   2) = (   0.3864597   0.3864597   0.2369790  )
         3           O   tau(   3) = (   0.4561097   0.0637591   0.2369790  )
         4           O   tau(   4) = (   0.0637591   0.4561097   0.2369790  )
         5           O   tau(   5) = (   0.2449145   0.2449145   0.0000000  )
         6           O   tau(   6) = (   0.5134502   0.5134502   0.0000000  )

     number of k points=   301

     Number of k-points >= 100: set verbosity='high' to print them.

     Dense  grid:     1323 G-vectors     FFT dimensions: (  15,  15,  12)

     Estimated max dynamical RAM per process >      14.76 MB

     Estimated total dynamical RAM >      29.51 MB

     Check: negative/imaginary core charge=   -0.009829    0.000000

     Initial potential from superposition of free atoms
     Check: negative starting charge=   -0.029950

     starting charge   51.99690, renormalised to   52.00000

     negative rho (up, down):  2.995E-02 0.000E+00
     Starting wfc are   34 randomized atomic wfcs

     Writing output data file SnO2.save

     total cpu time spent up to now is     4760.0 secs

     Self-consistent Calculation

     iteration #  1     ecut=    15.00 Ry     beta= 0.70
     Davidson diagonalization with overlap
     ethr =  1.00E-06,  avg # of iterations = 11.1

     negative rho (up, down):  8.861E-03 0.000E+00

     total cpu time spent up to now is     4781.5 secs

     total energy              =    -383.83477068 Ry
     Harris-Foulkes estimate   =    -399.19693857 Ry
     estimated scf accuracy    <      19.88053768 Ry

     iteration #  2     ecut=    15.00 Ry     beta= 0.70
     Davidson diagonalization with overlap
     ethr =  1.00E-02,  avg # of iterations =  3.2

     negative rho (up, down):  1.966E-03 0.000E+00

     total cpu time spent up to now is     4789.0 secs

     total energy              =    -386.88595067 Ry
     Harris-Foulkes estimate   =    -387.54384573 Ry
     estimated scf accuracy    <       1.19668652 Ry

     iteration #  3     ecut=    15.00 Ry     beta= 0.70
     Davidson diagonalization with overlap
     ethr =  2.30E-03,  avg # of iterations =  2.6

     total cpu time spent up to now is     4794.8 secs

     total energy              =    -387.03357557 Ry
     Harris-Foulkes estimate   =    -387.09865224 Ry
     estimated scf accuracy    <       0.11915893 Ry

     iteration #  4     ecut=    15.00 Ry     beta= 0.70
     Davidson diagonalization with overlap
     ethr =  2.29E-04,  avg # of iterations =  2.7

     total cpu time spent up to now is     4800.8 secs

     total energy              =    -387.05287122 Ry
     Harris-Foulkes estimate   =    -387.05712772 Ry
     estimated scf accuracy    <       0.00790230 Ry

     iteration #  5     ecut=    15.00 Ry     beta= 0.70
     Davidson diagonalization with overlap
     ethr =  1.52E-05,  avg # of iterations =  3.0

     total cpu time spent up to now is     4807.5 secs

     total energy              =    -387.05447711 Ry
     Harris-Foulkes estimate   =    -387.05532918 Ry
     estimated scf accuracy    <       0.00138846 Ry

     iteration #  6     ecut=    15.00 Ry     beta= 0.70
     Davidson diagonalization with overlap
     ethr =  2.67E-06,  avg # of iterations =  2.9

     total cpu time spent up to now is     4814.2 secs

     total energy              =    -387.05486833 Ry
     Harris-Foulkes estimate   =    -387.05498153 Ry
     estimated scf accuracy    <       0.00022164 Ry

     iteration #  7     ecut=    15.00 Ry     beta= 0.70
     Davidson diagonalization with overlap
     ethr =  4.26E-07,  avg # of iterations =  2.4

     total cpu time spent up to now is     4820.1 secs

     total energy              =    -387.05491767 Ry
     Harris-Foulkes estimate   =    -387.05492320 Ry
     estimated scf accuracy    <       0.00001037 Ry

     iteration #  8     ecut=    15.00 Ry     beta= 0.70
     Davidson diagonalization with overlap
     ethr =  1.99E-08,  avg # of iterations =  3.0

     total cpu time spent up to now is     4826.9 secs

     total energy              =    -387.05494047 Ry
     Harris-Foulkes estimate   =    -387.05494104 Ry
     estimated scf accuracy    <       0.00000128 Ry

     iteration #  9     ecut=    15.00 Ry     beta= 0.70
     Davidson diagonalization with overlap
     ethr =  2.46E-09,  avg # of iterations =  2.8

     total cpu time spent up to now is     4832.9 secs

     total energy              =    -387.05494069 Ry
     Harris-Foulkes estimate   =    -387.05494071 Ry
     estimated scf accuracy    <       0.00000006 Ry

     iteration # 10     ecut=    15.00 Ry     beta= 0.70
     Davidson diagonalization with overlap
     ethr =  1.09E-10,  avg # of iterations =  2.3

     total cpu time spent up to now is     4838.6 secs

     total energy              =    -387.05506642 Ry
     Harris-Foulkes estimate   =    -387.05506644 Ry
     estimated scf accuracy    <       0.00000233 Ry

     iteration # 11     ecut=    15.00 Ry     beta= 0.70
     Davidson diagonalization with overlap
     ethr =  1.09E-10,  avg # of iterations =  1.0

     total cpu time spent up to now is     4842.1 secs

     total energy              =    -387.05506704 Ry
     Harris-Foulkes estimate   =    -387.05506642 Ry
     estimated scf accuracy    <       0.00000229 Ry

     iteration # 12     ecut=    15.00 Ry     beta= 0.70
     Davidson diagonalization with overlap
     ethr =  1.09E-10,  avg # of iterations =  3.3

     total cpu time spent up to now is     4850.0 secs

     total energy              =    -387.05506575 Ry
     Harris-Foulkes estimate   =    -387.05506708 Ry
     estimated scf accuracy    <       0.00000387 Ry

     iteration # 13     ecut=    15.00 Ry     beta= 0.70
     Davidson diagonalization with overlap
     ethr =  1.09E-10,  avg # of iterations =  4.0

     total cpu time spent up to now is     4859.6 secs

     total energy              =    -387.05506526 Ry
     Harris-Foulkes estimate   =    -387.05506591 Ry
     estimated scf accuracy    <       0.00000106 Ry

     iteration # 14     ecut=    15.00 Ry     beta= 0.70
     Davidson diagonalization with overlap
     ethr =  1.09E-10,  avg # of iterations =  4.1

     total cpu time spent up to now is     4869.5 secs

     total energy              =    -387.05506548 Ry
     Harris-Foulkes estimate   =    -387.05506548 Ry
     estimated scf accuracy    <          3.9E-09 Ry

     iteration # 15     ecut=    15.00 Ry     beta= 0.70
     Davidson diagonalization with overlap
     ethr =  7.55E-12,  avg # of iterations =  1.0

     total cpu time spent up to now is     4873.0 secs

     total energy              =    -387.05506548 Ry
     Harris-Foulkes estimate   =    -387.05506548 Ry
     estimated scf accuracy    <          2.7E-09 Ry

     iteration # 16     ecut=    15.00 Ry     beta= 0.70
     Davidson diagonalization with overlap
     ethr =  5.14E-12,  avg # of iterations =  3.0

     total cpu time spent up to now is     4879.5 secs

     total energy              =    -387.05506548 Ry
     Harris-Foulkes estimate   =    -387.05506548 Ry
     estimated scf accuracy    <          3.1E-12 Ry

     iteration # 17     ecut=    15.00 Ry     beta= 0.70
     Davidson diagonalization with overlap
     ethr =  1.00E-13,  avg # of iterations =  2.0

     total cpu time spent up to now is     4883.8 secs

     total energy              =    -387.05506548 Ry
     Harris-Foulkes estimate   =    -387.05506548 Ry
     estimated scf accuracy    <          1.4E-12 Ry

     iteration # 18     ecut=    15.00 Ry     beta= 0.70
     Davidson diagonalization with overlap
     ethr =  1.00E-13,  avg # of iterations =  1.0

     total cpu time spent up to now is     4887.3 secs

     total energy              =    -387.05506548 Ry
     Harris-Foulkes estimate   =    -387.05506548 Ry
     estimated scf accuracy    <          1.8E-12 Ry

     iteration # 19     ecut=    15.00 Ry     beta= 0.70
     Davidson diagonalization with overlap
     ethr =  1.00E-13,  avg # of iterations =  1.0

     total cpu time spent up to now is     4890.9 secs

     End of self-consistent calculation

     Number of k-points >= 100: set verbosity='high' to print the bands.

     highest occupied level (ev):    54.1637

!    total energy              =    -387.05506548 Ry
     Harris-Foulkes estimate   =    -387.05506548 Ry
     estimated scf accuracy    <          2.0E-14 Ry

     The total energy is the sum of the following terms:

     one-electron contribution =     161.77272784 Ry
     hartree contribution      =      20.72052230 Ry
     xc contribution           =    -117.96104372 Ry
     ewald contribution        =    -451.58727190 Ry

     convergence has been achieved in  19 iterations

     Forces acting on atoms (cartesian axes, Ry/au):

     atom    1 type  1   force =     0.44908543    0.44908543    0.00000000
     atom    2 type  1   force =    -0.04543437   -0.04543437    0.00000000
     atom    3 type  2   force =    -0.37653561    0.14097904    0.00000000
     atom    4 type  2   force =     0.14097904   -0.37653561    0.00000000
     atom    5 type  2   force =    -0.11536917   -0.11536917    0.00000000
     atom    6 type  2   force =    -0.05272533   -0.05272533    0.00000000

     Total force =     0.873483     Total SCF correction =     0.000000


     Computing stress (Cartesian axis) and pressure

          total   stress  (Ry/bohr**3)                   (kbar)     P=********
  -0.12058275   0.05362125   0.00000000     -17738.33   7887.96      0.00
   0.05362125  -0.12058275   0.00000000       7887.96 -17738.33      0.00
   0.00000000   0.00000000  -0.09901626          0.00      0.00 -14565.79


     Writing output data file SnO2.save
 
     init_run     :      5.98s CPU      6.22s WALL (       2 calls)
     electrons    :   4625.61s CPU   4732.46s WALL (      31 calls)
     update_pot   :      7.15s CPU      7.21s WALL (      29 calls)
     forces       :     41.53s CPU     41.86s WALL (      31 calls)
     stress       :     95.69s CPU     97.99s WALL (      31 calls)

     Called by init_run:
     wfcinit      :      5.66s CPU      5.89s WALL (       2 calls)
     potinit      :      0.08s CPU      0.08s WALL (       2 calls)
     hinit0       :      0.24s CPU      0.24s WALL (       2 calls)

     Called by electrons:
     c_bands      :   4257.89s CPU   4351.45s WALL (     341 calls)
     sum_band     :    365.96s CPU    377.89s WALL (     341 calls)
     v_of_rho     :      1.46s CPU      1.49s WALL (     368 calls)
     mix_rho      :      0.33s CPU      0.33s WALL (     341 calls)

     Called by c_bands:
     init_us_2    :     31.26s CPU     57.74s WALL (  224546 calls)
     cegterg      :   3956.40s CPU   4031.58s WALL (  102641 calls)

     Called by sum_band:

     Called by *egterg:
     h_psi        :   2438.53s CPU   2525.25s WALL (  402675 calls)
     g_psi        :     14.08s CPU     24.22s WALL (  299432 calls)
     cdiaghg      :   1003.26s CPU    985.46s WALL (  392140 calls)

     Called by h_psi:
     h_psi:pot    :   2431.84s CPU   2514.40s WALL (  402675 calls)
     h_psi:calbec :    227.46s CPU    208.75s WALL (  402675 calls)
     vloc_psi     :   2134.82s CPU   2108.59s WALL (  402675 calls)
     add_vuspsi   :     68.92s CPU    194.63s WALL (  402675 calls)

     General routines
     calbec       :    269.61s CPU    236.90s WALL (  449330 calls)
     fft          :      1.09s CPU      0.94s WALL (    4488 calls)
     ffts         :      0.09s CPU      0.07s WALL (     341 calls)
     fftw         :   2465.01s CPU   2263.40s WALL (18824682 calls)
 
     Parallel routines
     fft_scatt_xy :     19.32s CPU    184.98s WALL (18829511 calls)
     fft_scatt_yz :   2262.40s CPU    534.88s WALL (18829511 calls)
 
     PWSCF        :     1h19m CPU        1h21m WALL

 
   This run was terminated on:  13:41:49   8Apr2018            

=------------------------------------------------------------------------------=
   JOB DONE.
=------------------------------------------------------------------------------=
