
     Program PWSCF v.6.2.2 starts on  9Apr2018 at 19:11: 9 

     This program is part of the open-source Quantum ESPRESSO suite
     for quantum simulation of materials; please cite
         "P. Giannozzi et al., J. Phys.:Condens. Matter 21 395502 (2009);
         "P. Giannozzi et al., J. Phys.:Condens. Matter 29 465901 (2017);
          URL http://www.quantum-espresso.org", 
     in publications or presentations arising from this work. More details at
     http://www.quantum-espresso.org/quote

     Parallel version (MPI), running on     2 processors

     MPI processes distributed on     1 nodes
     R & G space division:  proc/nbgrp/npool/nimage =       2
     Reading input from Conv_acell-ecut.in

     Current dimensions of program PWSCF are:
     Max number of different atomic species (ntypx) = 10
     Max number of k-points (npk) =  40000
     Max angular momentum in pseudopotentials (lmaxx) =  3

     Subspace diagonalization in iterative solution of the eigenvalue problem:
     a serial algorithm will be used

 
     Parallelization info
     --------------------
     sticks:   dense  smooth     PW     G-vecs:    dense   smooth      PW
     Min         790     790    240                15880    15880    2600
     Max         791     791    241                15883    15883    2601
     Sum        1581    1581    481                31763    31763    5201
 


     bravais-lattice index     =            6
     lattice parameter (alat)  =       9.1100  a.u.
     unit-cell volume          =     506.5589 (a.u.)^3
     number of atoms/cell      =            6
     number of atomic types    =            2
     number of electrons       =        52.00
     number of Kohn-Sham states=           26
     kinetic-energy cutoff     =      60.0000  Ry
     charge density cutoff     =     240.0000  Ry
     convergence threshold     =      1.0E-12
     mixing beta               =       0.7000
     number of iterations used =            8  plain     mixing
     Exchange-correlation      = PBE ( 1  4  3  4 0 0)
     nstep                     =           50


     celldm(1)=   9.110000  celldm(2)=   0.000000  celldm(3)=   0.670000
     celldm(4)=   0.000000  celldm(5)=   0.000000  celldm(6)=   0.000000

     crystal axes: (cart. coord. in units of alat)
               a(1) = (   1.000000   0.000000   0.000000 )  
               a(2) = (   0.000000   1.000000   0.000000 )  
               a(3) = (   0.000000   0.000000   0.670000 )  

     reciprocal axes: (cart. coord. in units 2 pi/alat)
               b(1) = (  1.000000  0.000000  0.000000 )  
               b(2) = (  0.000000  1.000000  0.000000 )  
               b(3) = (  0.000000  0.000000  1.492537 )  


     PseudoPot. # 1 for Sn read from file:
     ../../Pseudo_potentials/Sn_PBE.upf
     MD5 check sum: 78e6386ae56e929f0568ae8bf606a80c
     Pseudo is Norm-conserving + core correction, Zval = 14.0
     Generated using ONCVPSP code by D. R. Hamann
     Using radial grid of 1628 points,  6 beta functions with: 
                l(1) =   0
                l(2) =   0
                l(3) =   1
                l(4) =   1
                l(5) =   2
                l(6) =   2

     PseudoPot. # 2 for O  read from file:
     ../../Pseudo_potentials/O_PBE.upf
     MD5 check sum: 3e3f909f7470e8921608ab6b1f57bbae
     Pseudo is Norm-conserving + core correction, Zval =  6.0
     Generated using ONCVPSP code by D. R. Hamann
     Using radial grid of  936 points,  5 beta functions with: 
                l(1) =   0
                l(2) =   0
                l(3) =   1
                l(4) =   1
                l(5) =   2

     atomic species   valence    mass     pseudopotential
        Sn            14.00   118.71000     Sn( 1.00)
        O              6.00    15.99900     O ( 1.00)

      4 Sym. Ops. (no inversion) found



   Cartesian axes

     site n.     atom                  positions (alat units)
         1           Sn  tau(   1) = (   0.0000000   0.0000000   0.0000000  )
         2           Sn  tau(   2) = (   0.5000000   0.5000000   0.3350000  )
         3           O   tau(   3) = (   0.8060000   0.1930000   0.3350000  )
         4           O   tau(   4) = (   0.1930000   0.8060000   0.3350000  )
         5           O   tau(   5) = (   0.3060000   0.3060000   0.0000000  )
         6           O   tau(   6) = (   0.6930000   0.6930000   0.0000000  )

     number of k points=   301

     Number of k-points >= 100: set verbosity='high' to print them.

     Dense  grid:    31763 G-vectors     FFT dimensions: (  45,  45,  32)

     Estimated max dynamical RAM per process >     264.22 MB

     Estimated total dynamical RAM >     528.44 MB

     Check: negative/imaginary core charge=   -0.000033    0.000000

     Initial potential from superposition of free atoms

     starting charge   51.99690, renormalised to   52.00000
     Starting wfc are   34 randomized atomic wfcs

     total cpu time spent up to now is       26.9 secs

     Self-consistent Calculation

     iteration #  1     ecut=    60.00 Ry     beta= 0.70
     Davidson diagonalization with overlap
     ethr =  1.00E-02,  avg # of iterations =  2.0

     total cpu time spent up to now is       83.6 secs

     total energy              =    -446.82842608 Ry
     Harris-Foulkes estimate   =    -447.97919199 Ry
     estimated scf accuracy    <       1.56898197 Ry

     iteration #  2     ecut=    60.00 Ry     beta= 0.70
     Davidson diagonalization with overlap
     ethr =  3.02E-03,  avg # of iterations =  3.1

     total cpu time spent up to now is      155.0 secs

     total energy              =    -447.23132447 Ry
     Harris-Foulkes estimate   =    -448.00270377 Ry
     estimated scf accuracy    <       1.58547678 Ry

     iteration #  3     ecut=    60.00 Ry     beta= 0.70
     Davidson diagonalization with overlap
     ethr =  3.02E-03,  avg # of iterations =  3.0

     total cpu time spent up to now is      222.7 secs

     total energy              =    -447.54349288 Ry
     Harris-Foulkes estimate   =    -447.54416870 Ry
     estimated scf accuracy    <       0.00601878 Ry

     iteration #  4     ecut=    60.00 Ry     beta= 0.70
     Davidson diagonalization with overlap
     ethr =  1.16E-05,  avg # of iterations =  3.0

     total cpu time spent up to now is      296.5 secs

     total energy              =    -447.54657262 Ry
     Harris-Foulkes estimate   =    -447.54680148 Ry
     estimated scf accuracy    <       0.00048505 Ry

     iteration #  5     ecut=    60.00 Ry     beta= 0.70
     Davidson diagonalization with overlap
     ethr =  9.33E-07,  avg # of iterations =  2.5

     total cpu time spent up to now is      352.8 secs

     total energy              =    -447.54660541 Ry
     Harris-Foulkes estimate   =    -447.54661618 Ry
     estimated scf accuracy    <       0.00003305 Ry

     iteration #  6     ecut=    60.00 Ry     beta= 0.70
     Davidson diagonalization with overlap
     ethr =  6.36E-08,  avg # of iterations =  3.3

     total cpu time spent up to now is      431.6 secs

     total energy              =    -447.54667766 Ry
     Harris-Foulkes estimate   =    -447.54668047 Ry
     estimated scf accuracy    <       0.00000775 Ry

     iteration #  7     ecut=    60.00 Ry     beta= 0.70
     Davidson diagonalization with overlap
     ethr =  1.49E-08,  avg # of iterations =  3.1

     total cpu time spent up to now is      498.8 secs

     total energy              =    -447.54667865 Ry
     Harris-Foulkes estimate   =    -447.54667953 Ry
     estimated scf accuracy    <       0.00000198 Ry

     iteration #  8     ecut=    60.00 Ry     beta= 0.70
     Davidson diagonalization with overlap
     ethr =  3.81E-09,  avg # of iterations =  3.0

     total cpu time spent up to now is      568.2 secs

     total energy              =    -447.54667917 Ry
     Harris-Foulkes estimate   =    -447.54667922 Ry
     estimated scf accuracy    <       0.00000013 Ry

     iteration #  9     ecut=    60.00 Ry     beta= 0.70
     Davidson diagonalization with overlap
     ethr =  2.42E-10,  avg # of iterations =  2.2

     total cpu time spent up to now is      632.8 secs

     total energy              =    -447.54667918 Ry
     Harris-Foulkes estimate   =    -447.54667919 Ry
     estimated scf accuracy    <       0.00000001 Ry

     iteration # 10     ecut=    60.00 Ry     beta= 0.70
     Davidson diagonalization with overlap
     ethr =  2.01E-11,  avg # of iterations =  3.0

     total cpu time spent up to now is      704.4 secs

     total energy              =    -447.54667919 Ry
     Harris-Foulkes estimate   =    -447.54667919 Ry
     estimated scf accuracy    <          1.1E-09 Ry

     iteration # 11     ecut=    60.00 Ry     beta= 0.70
     Davidson diagonalization with overlap
     ethr =  2.15E-12,  avg # of iterations =  3.6

     total cpu time spent up to now is      774.7 secs

     total energy              =    -447.54667919 Ry
     Harris-Foulkes estimate   =    -447.54667919 Ry
     estimated scf accuracy    <          1.7E-10 Ry

     iteration # 12     ecut=    60.00 Ry     beta= 0.70
     Davidson diagonalization with overlap
     ethr =  3.31E-13,  avg # of iterations =  3.0

     total cpu time spent up to now is      840.0 secs

     total energy              =    -447.54667919 Ry
     Harris-Foulkes estimate   =    -447.54667919 Ry
     estimated scf accuracy    <          4.3E-12 Ry

     iteration # 13     ecut=    60.00 Ry     beta= 0.70
     Davidson diagonalization with overlap
     ethr =  1.00E-13,  avg # of iterations =  1.2

     total cpu time spent up to now is      891.6 secs

     End of self-consistent calculation

     Number of k-points >= 100: set verbosity='high' to print the bands.

     highest occupied level (ev):     9.0639

!    total energy              =    -447.54667919 Ry
     Harris-Foulkes estimate   =    -447.54667919 Ry
     estimated scf accuracy    <          5.9E-13 Ry

     The total energy is the sum of the following terms:

     one-electron contribution =    -123.97451194 Ry
     hartree contribution      =     101.01317997 Ry
     xc contribution           =    -122.10401141 Ry
     ewald contribution        =    -302.48133581 Ry

     convergence has been achieved in  13 iterations

     Forces acting on atoms (cartesian axes, Ry/au):

     atom    1 type  1   force =    -0.00109299   -0.00109299    0.00000000
     atom    2 type  1   force =    -0.00138035   -0.00138035    0.00000000
     atom    3 type  2   force =    -0.00056839    0.00055122    0.00000000
     atom    4 type  2   force =     0.00055122   -0.00056839    0.00000000
     atom    5 type  2   force =     0.00049374    0.00049374    0.00000000
     atom    6 type  2   force =     0.00199677    0.00199677    0.00000000

     Total force =     0.003989     Total SCF correction =     0.000003


     Computing stress (Cartesian axis) and pressure

          total   stress  (Ry/bohr**3)                   (kbar)     P=  -87.93
  -0.00063201   0.00000011   0.00000000        -92.97      0.02      0.00
   0.00000011  -0.00063201   0.00000000          0.02    -92.97      0.00
  -0.00000000   0.00000000  -0.00052917         -0.00      0.00    -77.84


     BFGS Geometry Optimization

     number of scf cycles    =   1
     number of bfgs steps    =   0

     enthalpy new            =    -447.5466791870 Ry

     new trust radius        =       0.0711228510 bohr
     new conv_thr            =            1.0E-12 Ry

     new unit-cell volume =    484.18652 a.u.^3 (    71.74904 Ang^3 )
     density =      6.97588 g/cm^3

CELL_PARAMETERS (alat=  9.11000000)
   0.984199741   0.000000000   0.000000000
   0.000000000   0.984199741   0.000000000
   0.000000000   0.000000000   0.661136405

ATOMIC_POSITIONS (crystal)
Sn      -0.000119977  -0.000119977   0.000000000
Sn       0.499848479   0.499848479   0.500000000
O        0.805937608   0.193060507   0.500000000
O        0.193060507   0.805937608   0.500000000
O        0.306054198   0.306054198   0.000000000
O        0.693219184   0.693219184   0.000000000



     Writing output data file SnO2.save
     NEW-OLD atomic charge density approx. for the potential

     Check: negative/imaginary core charge=   -0.000025    0.000000
     extrapolated charge   49.59743, renormalised to   52.00000

     total cpu time spent up to now is      918.7 secs

     Self-consistent Calculation

     iteration #  1     ecut=    60.00 Ry     beta= 0.70
     Davidson diagonalization with overlap
     ethr =  1.00E-06,  avg # of iterations =  5.3

     total cpu time spent up to now is     1039.4 secs

     total energy              =    -447.27186749 Ry
     Harris-Foulkes estimate   =    -452.56399900 Ry
     estimated scf accuracy    <       0.17866573 Ry

     iteration #  2     ecut=    60.00 Ry     beta= 0.70
     Davidson diagonalization with overlap
     ethr =  3.44E-04,  avg # of iterations =  4.0

     total cpu time spent up to now is     1126.5 secs

     total energy              =    -447.53498788 Ry
     Harris-Foulkes estimate   =    -447.69442905 Ry
     estimated scf accuracy    <       0.42759035 Ry

     iteration #  3     ecut=    60.00 Ry     beta= 0.70
     Davidson diagonalization with overlap
     ethr =  3.44E-04,  avg # of iterations =  2.0

     total cpu time spent up to now is     1190.7 secs

     total energy              =    -447.55846277 Ry
     Harris-Foulkes estimate   =    -447.57232638 Ry
     estimated scf accuracy    <       0.05236908 Ry

     iteration #  4     ecut=    60.00 Ry     beta= 0.70
     Davidson diagonalization with overlap
     ethr =  1.01E-04,  avg # of iterations =  1.0

     total cpu time spent up to now is     1241.7 secs

     total energy              =    -447.54896461 Ry
     Harris-Foulkes estimate   =    -447.55994269 Ry
     estimated scf accuracy    <       0.02650338 Ry

     iteration #  5     ecut=    60.00 Ry     beta= 0.70
     Davidson diagonalization with overlap
     ethr =  5.10E-05,  avg # of iterations =  2.0

     total cpu time spent up to now is     1301.9 secs

     total energy              =    -447.55056189 Ry
     Harris-Foulkes estimate   =    -447.55177425 Ry
     estimated scf accuracy    <       0.00224679 Ry

     iteration #  6     ecut=    60.00 Ry     beta= 0.70
     Davidson diagonalization with overlap
     ethr =  4.32E-06,  avg # of iterations =  3.0

     total cpu time spent up to now is     1377.4 secs

     total energy              =    -447.55107380 Ry
     Harris-Foulkes estimate   =    -447.55107668 Ry
     estimated scf accuracy    <       0.00003335 Ry

     iteration #  7     ecut=    60.00 Ry     beta= 0.70
     Davidson diagonalization with overlap
     ethr =  6.41E-08,  avg # of iterations =  3.1

     total cpu time spent up to now is     1451.5 secs

     total energy              =    -447.55104697 Ry
     Harris-Foulkes estimate   =    -447.55109876 Ry
     estimated scf accuracy    <       0.00010311 Ry

     iteration #  8     ecut=    60.00 Ry     beta= 0.70
     Davidson diagonalization with overlap
     ethr =  6.41E-08,  avg # of iterations =  3.0

     total cpu time spent up to now is     1528.3 secs

     total energy              =    -447.55106189 Ry
     Harris-Foulkes estimate   =    -447.55106242 Ry
     estimated scf accuracy    <       0.00000132 Ry

     iteration #  9     ecut=    60.00 Ry     beta= 0.70
     Davidson diagonalization with overlap
     ethr =  2.55E-09,  avg # of iterations =  2.0

     total cpu time spent up to now is     1586.8 secs

     total energy              =    -447.55106181 Ry
     Harris-Foulkes estimate   =    -447.55106202 Ry
     estimated scf accuracy    <       0.00000032 Ry

     iteration # 10     ecut=    60.00 Ry     beta= 0.70
     Davidson diagonalization with overlap
     ethr =  6.08E-10,  avg # of iterations =  2.0

     total cpu time spent up to now is     1659.5 secs

     total energy              =    -447.55106187 Ry
     Harris-Foulkes estimate   =    -447.55106191 Ry
     estimated scf accuracy    <       0.00000010 Ry

     iteration # 11     ecut=    60.00 Ry     beta= 0.70
     Davidson diagonalization with overlap
     ethr =  1.91E-10,  avg # of iterations =  2.0

     total cpu time spent up to now is     1723.9 secs

     total energy              =    -447.55106188 Ry
     Harris-Foulkes estimate   =    -447.55106188 Ry
     estimated scf accuracy    <          1.1E-09 Ry

     iteration # 12     ecut=    60.00 Ry     beta= 0.70
     Davidson diagonalization with overlap
     ethr =  2.15E-12,  avg # of iterations =  3.2

     total cpu time spent up to now is     1801.4 secs

     total energy              =    -447.55106188 Ry
     Harris-Foulkes estimate   =    -447.55106188 Ry
     estimated scf accuracy    <          3.8E-10 Ry

     iteration # 13     ecut=    60.00 Ry     beta= 0.70
     Davidson diagonalization with overlap
     ethr =  7.38E-13,  avg # of iterations =  3.0

     total cpu time spent up to now is     1868.1 secs

     total energy              =    -447.55106188 Ry
     Harris-Foulkes estimate   =    -447.55106188 Ry
     estimated scf accuracy    <          6.2E-11 Ry

     iteration # 14     ecut=    60.00 Ry     beta= 0.70
     Davidson diagonalization with overlap
     ethr =  1.18E-13,  avg # of iterations =  2.0

     total cpu time spent up to now is     1933.4 secs

     total energy              =    -447.55106188 Ry
     Harris-Foulkes estimate   =    -447.55106188 Ry
     estimated scf accuracy    <          1.8E-11 Ry

     iteration # 15     ecut=    60.00 Ry     beta= 0.70
     Davidson diagonalization with overlap
     ethr =  1.00E-13,  avg # of iterations =  2.0

     total cpu time spent up to now is     1989.7 secs

     End of self-consistent calculation

     Number of k-points >= 100: set verbosity='high' to print the bands.

     highest occupied level (ev):     9.7392

!    total energy              =    -447.55106188 Ry
     Harris-Foulkes estimate   =    -447.55106188 Ry
     estimated scf accuracy    <          1.8E-13 Ry

     The total energy is the sum of the following terms:

     one-electron contribution =    -117.00308430 Ry
     hartree contribution      =      98.93260053 Ry
     xc contribution           =    -122.31803561 Ry
     ewald contribution        =    -307.16254251 Ry

     convergence has been achieved in  15 iterations

     Forces acting on atoms (cartesian axes, Ry/au):

     atom    1 type  1   force =    -0.00074920   -0.00074920    0.00000000
     atom    2 type  1   force =    -0.00054275   -0.00054275    0.00000000
     atom    3 type  2   force =    -0.00465036    0.00476560    0.00000000
     atom    4 type  2   force =     0.00476560   -0.00465036    0.00000000
     atom    5 type  2   force =    -0.00411914   -0.00411914    0.00000000
     atom    6 type  2   force =     0.00529585    0.00529585    0.00000000

     Total force =     0.013432     Total SCF correction =     0.000001


     Computing stress (Cartesian axis) and pressure

          total   stress  (Ry/bohr**3)                   (kbar)     P=   35.55
   0.00016237   0.00000019   0.00000000         23.89      0.03      0.00
   0.00000019   0.00016237   0.00000000          0.03     23.89      0.00
   0.00000000   0.00000000   0.00040019          0.00      0.00     58.87


     number of scf cycles    =   2
     number of bfgs steps    =   1

     enthalpy old            =    -447.5466791870 Ry
     enthalpy new            =    -447.5510618802 Ry

     CASE: enthalpy_new < enthalpy_old

     new trust radius        =       0.0296361490 bohr
     new conv_thr            =            1.0E-12 Ry

     new unit-cell volume =    489.80210 a.u.^3 (    72.58118 Ang^3 )
     density =      6.89591 g/cm^3

CELL_PARAMETERS (alat=  9.11000000)
   0.986574331   0.000000000   0.000000000
   0.000000000   0.986574331   0.000000000
   0.000000000   0.000000000   0.665588623

ATOMIC_POSITIONS (crystal)
Sn      -0.000182745  -0.000182745   0.000000000
Sn       0.499800970   0.499800970   0.500000000
O        0.805569518   0.193437610   0.500000000
O        0.193437610   0.805569518   0.500000000
O        0.305731608   0.305731608   0.000000000
O        0.693643038   0.693643038   0.000000000



     Writing output data file SnO2.save
     NEW-OLD atomic charge density approx. for the potential

     Check: negative/imaginary core charge=   -0.000027    0.000000
     extrapolated charge   52.59614, renormalised to   52.00000

     total cpu time spent up to now is     2016.8 secs

     Self-consistent Calculation

     iteration #  1     ecut=    60.00 Ry     beta= 0.70
     Davidson diagonalization with overlap
     ethr =  1.00E-06,  avg # of iterations =  4.6

     total cpu time spent up to now is     2122.4 secs

     total energy              =    -447.53339929 Ry
     Harris-Foulkes estimate   =    -446.28833114 Ry
     estimated scf accuracy    <       0.01160922 Ry

     iteration #  2     ecut=    60.00 Ry     beta= 0.70
     Davidson diagonalization with overlap
     ethr =  2.23E-05,  avg # of iterations =  4.0

     total cpu time spent up to now is     2210.7 secs

     total energy              =    -447.55109048 Ry
     Harris-Foulkes estimate   =    -447.56182613 Ry
     estimated scf accuracy    <       0.02900948 Ry

     iteration #  3     ecut=    60.00 Ry     beta= 0.70
     Davidson diagonalization with overlap
     ethr =  2.23E-05,  avg # of iterations =  2.0

     total cpu time spent up to now is     2274.6 secs

     total energy              =    -447.55262061 Ry
     Harris-Foulkes estimate   =    -447.55356704 Ry
     estimated scf accuracy    <       0.00375163 Ry

     iteration #  4     ecut=    60.00 Ry     beta= 0.70
     Davidson diagonalization with overlap
     ethr =  7.21E-06,  avg # of iterations =  1.0

     total cpu time spent up to now is     2325.6 secs

     total energy              =    -447.55192360 Ry
     Harris-Foulkes estimate   =    -447.55271541 Ry
     estimated scf accuracy    <       0.00197836 Ry

     iteration #  5     ecut=    60.00 Ry     beta= 0.70
     Davidson diagonalization with overlap
     ethr =  3.80E-06,  avg # of iterations =  2.0

     total cpu time spent up to now is     2384.3 secs

     total energy              =    -447.55198871 Ry
     Harris-Foulkes estimate   =    -447.55210622 Ry
     estimated scf accuracy    <       0.00022033 Ry

     iteration #  6     ecut=    60.00 Ry     beta= 0.70
     Davidson diagonalization with overlap
     ethr =  4.24E-07,  avg # of iterations =  3.0

     total cpu time spent up to now is     2458.1 secs

     total energy              =    -447.55203620 Ry
     Harris-Foulkes estimate   =    -447.55203669 Ry
     estimated scf accuracy    <       0.00000264 Ry

     iteration #  7     ecut=    60.00 Ry     beta= 0.70
     Davidson diagonalization with overlap
     ethr =  5.08E-09,  avg # of iterations =  3.0

     total cpu time spent up to now is     2529.5 secs

     total energy              =    -447.55203456 Ry
     Harris-Foulkes estimate   =    -447.55203757 Ry
     estimated scf accuracy    <       0.00000547 Ry

     iteration #  8     ecut=    60.00 Ry     beta= 0.70
     Davidson diagonalization with overlap
     ethr =  5.08E-09,  avg # of iterations =  2.3

     total cpu time spent up to now is     2602.7 secs

     total energy              =    -447.55203554 Ry
     Harris-Foulkes estimate   =    -447.55203554 Ry
     estimated scf accuracy    <       0.00000001 Ry

     iteration #  9     ecut=    60.00 Ry     beta= 0.70
     Davidson diagonalization with overlap
     ethr =  2.30E-11,  avg # of iterations =  3.9

     total cpu time spent up to now is     2692.5 secs

     total energy              =    -447.55203555 Ry
     Harris-Foulkes estimate   =    -447.55203556 Ry
     estimated scf accuracy    <       0.00000005 Ry

     iteration # 10     ecut=    60.00 Ry     beta= 0.70
     Davidson diagonalization with overlap
     ethr =  2.30E-11,  avg # of iterations =  2.0

     total cpu time spent up to now is     2751.1 secs

     total energy              =    -447.55203554 Ry
     Harris-Foulkes estimate   =    -447.55203556 Ry
     estimated scf accuracy    <       0.00000002 Ry

     iteration # 11     ecut=    60.00 Ry     beta= 0.70
     Davidson diagonalization with overlap
     ethr =  2.30E-11,  avg # of iterations =  2.9

     total cpu time spent up to now is     2819.9 secs

     total energy              =    -447.55203555 Ry
     Harris-Foulkes estimate   =    -447.55203555 Ry
     estimated scf accuracy    <          1.1E-10 Ry

     iteration # 12     ecut=    60.00 Ry     beta= 0.70
     Davidson diagonalization with overlap
     ethr =  2.12E-13,  avg # of iterations =  3.3

     total cpu time spent up to now is     2901.1 secs

     total energy              =    -447.55203555 Ry
     Harris-Foulkes estimate   =    -447.55203555 Ry
     estimated scf accuracy    <          5.4E-11 Ry

     iteration # 13     ecut=    60.00 Ry     beta= 0.70
     Davidson diagonalization with overlap
     ethr =  1.04E-13,  avg # of iterations =  2.0

     total cpu time spent up to now is     2958.4 secs

     total energy              =    -447.55203555 Ry
     Harris-Foulkes estimate   =    -447.55203555 Ry
     estimated scf accuracy    <          1.3E-11 Ry

     iteration # 14     ecut=    60.00 Ry     beta= 0.70
     Davidson diagonalization with overlap
     ethr =  1.00E-13,  avg # of iterations =  1.0

     total cpu time spent up to now is     3010.0 secs

     total energy              =    -447.55203555 Ry
     Harris-Foulkes estimate   =    -447.55203555 Ry
     estimated scf accuracy    <          1.9E-12 Ry

     iteration # 15     ecut=    60.00 Ry     beta= 0.70
     Davidson diagonalization with overlap
     ethr =  1.00E-13,  avg # of iterations =  1.0

     total cpu time spent up to now is     3061.5 secs

     End of self-consistent calculation

     Number of k-points >= 100: set verbosity='high' to print the bands.

     highest occupied level (ev):     9.5671

!    total energy              =    -447.55203555 Ry
     Harris-Foulkes estimate   =    -447.55203555 Ry
     estimated scf accuracy    <          4.6E-14 Ry

     The total energy is the sum of the following terms:

     one-electron contribution =    -118.41111860 Ry
     hartree contribution      =      99.27633791 Ry
     xc contribution           =    -122.25694076 Ry
     ewald contribution        =    -306.16031410 Ry

     convergence has been achieved in  15 iterations

     Forces acting on atoms (cartesian axes, Ry/au):

     atom    1 type  1   force =    -0.00042105   -0.00042105    0.00000000
     atom    2 type  1   force =    -0.00023314   -0.00023314    0.00000000
     atom    3 type  2   force =    -0.00122403    0.00141510    0.00000000
     atom    4 type  2   force =     0.00141510   -0.00122403    0.00000000
     atom    5 type  2   force =    -0.00110346   -0.00110346    0.00000000
     atom    6 type  2   force =     0.00156659    0.00156659    0.00000000

     Total force =     0.003848     Total SCF correction =     0.000000


     Computing stress (Cartesian axis) and pressure

          total   stress  (Ry/bohr**3)                   (kbar)     P=   -0.12
  -0.00002749   0.00000018   0.00000000         -4.04      0.03      0.00
   0.00000018  -0.00002749   0.00000000          0.03     -4.04      0.00
   0.00000000   0.00000000   0.00005258          0.00      0.00      7.73


     number of scf cycles    =   3
     number of bfgs steps    =   2

     enthalpy old            =    -447.5510618802 Ry
     enthalpy new            =    -447.5520355482 Ry

     CASE: enthalpy_new < enthalpy_old

     new trust radius        =       0.0067323197 bohr
     new conv_thr            =            1.0E-12 Ry

     new unit-cell volume =    489.71613 a.u.^3 (    72.56844 Ang^3 )
     density =      6.89712 g/cm^3

CELL_PARAMETERS (alat=  9.11000000)
   0.985738378   0.000000000   0.000000000
   0.000000000   0.985738378   0.000000000
   0.000000000   0.000000000   0.666600972

ATOMIC_POSITIONS (crystal)
Sn      -0.000236687  -0.000236687   0.000000000
Sn       0.499769400   0.499769400   0.500000000
O        0.805408216   0.193621769   0.500000000
O        0.193621769   0.805408216   0.500000000
O        0.305588078   0.305588078   0.000000000
O        0.693849224   0.693849224   0.000000000



     Writing output data file SnO2.save
     NEW-OLD atomic charge density approx. for the potential

     Check: negative/imaginary core charge=   -0.000027    0.000000
     extrapolated charge   51.99087, renormalised to   52.00000

     total cpu time spent up to now is     3088.5 secs

     Self-consistent Calculation

     iteration #  1     ecut=    60.00 Ry     beta= 0.70
     Davidson diagonalization with overlap
     ethr =  1.00E-06,  avg # of iterations =  3.2

     Threshold (ethr) on eigenvalues was too large:
     Diagonalizing with lowered threshold

     Davidson diagonalization with overlap
     ethr =  8.99E-09,  avg # of iterations =  3.8

     total cpu time spent up to now is     3242.8 secs

     total energy              =    -447.55208334 Ry
     Harris-Foulkes estimate   =    -447.57137784 Ry
     estimated scf accuracy    <       0.00000452 Ry

     iteration #  2     ecut=    60.00 Ry     beta= 0.70
     Davidson diagonalization with overlap
     ethr =  8.69E-09,  avg # of iterations =  3.1

     total cpu time spent up to now is     3323.2 secs

     total energy              =    -447.55208627 Ry
     Harris-Foulkes estimate   =    -447.55208823 Ry
     estimated scf accuracy    <       0.00000442 Ry

     iteration #  3     ecut=    60.00 Ry     beta= 0.70
     Davidson diagonalization with overlap
     ethr =  8.50E-09,  avg # of iterations =  2.0

     total cpu time spent up to now is     3385.8 secs

     total energy              =    -447.55208665 Ry
     Harris-Foulkes estimate   =    -447.55208683 Ry
     estimated scf accuracy    <       0.00000034 Ry

     iteration #  4     ecut=    60.00 Ry     beta= 0.70
     Davidson diagonalization with overlap
     ethr =  6.54E-10,  avg # of iterations =  2.0

     total cpu time spent up to now is     3451.8 secs

     total energy              =    -447.55208670 Ry
     Harris-Foulkes estimate   =    -447.55208673 Ry
     estimated scf accuracy    <       0.00000007 Ry

     iteration #  5     ecut=    60.00 Ry     beta= 0.70
     Davidson diagonalization with overlap
     ethr =  1.35E-10,  avg # of iterations =  2.0

     total cpu time spent up to now is     3515.7 secs

     total energy              =    -447.55208671 Ry
     Harris-Foulkes estimate   =    -447.55208671 Ry
     estimated scf accuracy    <          2.1E-09 Ry

     iteration #  6     ecut=    60.00 Ry     beta= 0.70
     Davidson diagonalization with overlap
     ethr =  4.04E-12,  avg # of iterations =  3.0

     total cpu time spent up to now is     3592.9 secs

     total energy              =    -447.55208671 Ry
     Harris-Foulkes estimate   =    -447.55208671 Ry
     estimated scf accuracy    <          1.5E-09 Ry

     iteration #  7     ecut=    60.00 Ry     beta= 0.70
     Davidson diagonalization with overlap
     ethr =  2.88E-12,  avg # of iterations =  3.0

     total cpu time spent up to now is     3657.3 secs

     total energy              =    -447.55208671 Ry
     Harris-Foulkes estimate   =    -447.55208671 Ry
     estimated scf accuracy    <          6.6E-11 Ry

     iteration #  8     ecut=    60.00 Ry     beta= 0.70
     Davidson diagonalization with overlap
     ethr =  1.27E-13,  avg # of iterations =  3.0

     total cpu time spent up to now is     3725.1 secs

     total energy              =    -447.55208671 Ry
     Harris-Foulkes estimate   =    -447.55208671 Ry
     estimated scf accuracy    <          4.4E-12 Ry

     iteration #  9     ecut=    60.00 Ry     beta= 0.70
     Davidson diagonalization with overlap
     ethr =  1.00E-13,  avg # of iterations =  1.0

     total cpu time spent up to now is     3776.5 secs

     total energy              =    -447.55208671 Ry
     Harris-Foulkes estimate   =    -447.55208671 Ry
     estimated scf accuracy    <          1.4E-12 Ry

     iteration # 10     ecut=    60.00 Ry     beta= 0.70
     Davidson diagonalization with overlap
     ethr =  1.00E-13,  avg # of iterations =  1.0

     total cpu time spent up to now is     3827.9 secs

     End of self-consistent calculation

     Number of k-points >= 100: set verbosity='high' to print the bands.

     highest occupied level (ev):     9.5709

!    total energy              =    -447.55208671 Ry
     Harris-Foulkes estimate   =    -447.55208671 Ry
     estimated scf accuracy    <          1.5E-13 Ry

     The total energy is the sum of the following terms:

     one-electron contribution =    -118.21046630 Ry
     hartree contribution      =      99.18326562 Ry
     xc contribution           =    -122.25521159 Ry
     ewald contribution        =    -306.26967445 Ry

     convergence has been achieved in  10 iterations

     Forces acting on atoms (cartesian axes, Ry/au):

     atom    1 type  1   force =    -0.00015513   -0.00015513    0.00000000
     atom    2 type  1   force =    -0.00007984   -0.00007984    0.00000000
     atom    3 type  2   force =    -0.00017689    0.00039550    0.00000000
     atom    4 type  2   force =     0.00039550   -0.00017689    0.00000000
     atom    5 type  2   force =    -0.00027870   -0.00027870    0.00000000
     atom    6 type  2   force =     0.00029507    0.00029507    0.00000000

     Total force =     0.000875     Total SCF correction =     0.000001


     Computing stress (Cartesian axis) and pressure

          total   stress  (Ry/bohr**3)                   (kbar)     P=   -0.93
  -0.00001434   0.00000019   0.00000000         -2.11      0.03      0.00
   0.00000019  -0.00001434   0.00000000          0.03     -2.11      0.00
   0.00000000   0.00000000   0.00000967          0.00      0.00      1.42


     number of scf cycles    =   4
     number of bfgs steps    =   3

     enthalpy old            =    -447.5520355482 Ry
     enthalpy new            =    -447.5520867131 Ry

     CASE: enthalpy_new < enthalpy_old

     new trust radius        =       0.0024022357 bohr
     new conv_thr            =            1.0E-12 Ry

     new unit-cell volume =    489.47389 a.u.^3 (    72.53255 Ang^3 )
     density =      6.90053 g/cm^3

CELL_PARAMETERS (alat=  9.11000000)
   0.985227219   0.000000000   0.000000000
   0.000000000   0.985227219   0.000000000
   0.000000000   0.000000000   0.666962781

ATOMIC_POSITIONS (crystal)
Sn      -0.000264573  -0.000264573   0.000000000
Sn       0.499754000   0.499754000   0.500000000
O        0.805363708   0.193700504   0.500000000
O        0.193700504   0.805363708   0.500000000
O        0.305530698   0.305530698   0.000000000
O        0.693915662   0.693915662   0.000000000



     Writing output data file SnO2.save
     NEW-OLD atomic charge density approx. for the potential

     Check: negative/imaginary core charge=   -0.000027    0.000000
     extrapolated charge   51.97427, renormalised to   52.00000

     total cpu time spent up to now is     3855.3 secs

     Self-consistent Calculation

     iteration #  1     ecut=    60.00 Ry     beta= 0.70
     Davidson diagonalization with overlap
     ethr =  1.00E-06,  avg # of iterations =  2.9

     Threshold (ethr) on eigenvalues was too large:
     Diagonalizing with lowered threshold

     Davidson diagonalization with overlap
     ethr =  3.36E-08,  avg # of iterations =  2.8

     total cpu time spent up to now is     3986.9 secs

     total energy              =    -447.55206057 Ry
     Harris-Foulkes estimate   =    -447.60640671 Ry
     estimated scf accuracy    <       0.00001875 Ry

     iteration #  2     ecut=    60.00 Ry     beta= 0.70
     Davidson diagonalization with overlap
     ethr =  3.61E-08,  avg # of iterations =  4.0

     total cpu time spent up to now is     4078.7 secs

     total energy              =    -447.55209131 Ry
     Harris-Foulkes estimate   =    -447.55210896 Ry
     estimated scf accuracy    <       0.00004827 Ry

     iteration #  3     ecut=    60.00 Ry     beta= 0.70
     Davidson diagonalization with overlap
     ethr =  3.61E-08,  avg # of iterations =  2.0

     total cpu time spent up to now is     4143.5 secs

     total energy              =    -447.55209348 Ry
     Harris-Foulkes estimate   =    -447.55209526 Ry
     estimated scf accuracy    <       0.00000673 Ry

     iteration #  4     ecut=    60.00 Ry     beta= 0.70
     Davidson diagonalization with overlap
     ethr =  1.29E-08,  avg # of iterations =  1.0

     total cpu time spent up to now is     4195.0 secs

     total energy              =    -447.55209184 Ry
     Harris-Foulkes estimate   =    -447.55209367 Ry
     estimated scf accuracy    <       0.00000342 Ry

     iteration #  5     ecut=    60.00 Ry     beta= 0.70
     Davidson diagonalization with overlap
     ethr =  6.58E-09,  avg # of iterations =  2.0

     total cpu time spent up to now is     4265.2 secs

     total energy              =    -447.55209248 Ry
     Harris-Foulkes estimate   =    -447.55209249 Ry
     estimated scf accuracy    <          6.5E-09 Ry

     iteration #  6     ecut=    60.00 Ry     beta= 0.70
     Davidson diagonalization with overlap
     ethr =  1.25E-11,  avg # of iterations =  4.1

     total cpu time spent up to now is     4347.7 secs

     total energy              =    -447.55209249 Ry
     Harris-Foulkes estimate   =    -447.55209249 Ry
     estimated scf accuracy    <          1.1E-09 Ry

     iteration #  7     ecut=    60.00 Ry     beta= 0.70
     Davidson diagonalization with overlap
     ethr =  2.10E-12,  avg # of iterations =  3.0

     total cpu time spent up to now is     4416.9 secs

     total energy              =    -447.55209249 Ry
     Harris-Foulkes estimate   =    -447.55209249 Ry
     estimated scf accuracy    <          5.3E-10 Ry

     iteration #  8     ecut=    60.00 Ry     beta= 0.70
     Davidson diagonalization with overlap
     ethr =  1.02E-12,  avg # of iterations =  2.0

     total cpu time spent up to now is     4480.4 secs

     total energy              =    -447.55209249 Ry
     Harris-Foulkes estimate   =    -447.55209249 Ry
     estimated scf accuracy    <          2.4E-11 Ry

     iteration #  9     ecut=    60.00 Ry     beta= 0.70
     Davidson diagonalization with overlap
     ethr =  1.00E-13,  avg # of iterations =  2.0

     total cpu time spent up to now is     4539.5 secs

     total energy              =    -447.55209249 Ry
     Harris-Foulkes estimate   =    -447.55209249 Ry
     estimated scf accuracy    <          2.3E-12 Ry

     iteration # 10     ecut=    60.00 Ry     beta= 0.70
     Davidson diagonalization with overlap
     ethr =  1.00E-13,  avg # of iterations =  1.0

     total cpu time spent up to now is     4590.4 secs

     End of self-consistent calculation

     Number of k-points >= 100: set verbosity='high' to print the bands.

     highest occupied level (ev):     9.5787

!    total energy              =    -447.55209249 Ry
     Harris-Foulkes estimate   =    -447.55209249 Ry
     estimated scf accuracy    <          5.2E-13 Ry

     The total energy is the sum of the following terms:

     one-electron contribution =    -118.06175513 Ry
     hartree contribution      =      99.12528940 Ry
     xc contribution           =    -122.25651737 Ry
     ewald contribution        =    -306.35910939 Ry

     convergence has been achieved in  10 iterations

     Forces acting on atoms (cartesian axes, Ry/au):

     atom    1 type  1   force =    -0.00004002   -0.00004002    0.00000000
     atom    2 type  1   force =    -0.00004837   -0.00004837    0.00000000
     atom    3 type  2   force =     0.00017693    0.00002802    0.00000000
     atom    4 type  2   force =     0.00002802    0.00017693    0.00000000
     atom    5 type  2   force =     0.00001885    0.00001885    0.00000000
     atom    6 type  2   force =    -0.00013541   -0.00013541    0.00000000

     Total force =     0.000331     Total SCF correction =     0.000001


     Computing stress (Cartesian axis) and pressure

          total   stress  (Ry/bohr**3)                   (kbar)     P=   -0.09
  -0.00000095   0.00000020   0.00000000         -0.14      0.03      0.00
   0.00000020  -0.00000095   0.00000000          0.03     -0.14      0.00
   0.00000000   0.00000000   0.00000011          0.00      0.00      0.02


     number of scf cycles    =   5
     number of bfgs steps    =   4

     enthalpy old            =    -447.5520867131 Ry
     enthalpy new            =    -447.5520924907 Ry

     CASE: enthalpy_new < enthalpy_old

     new trust radius        =       0.0001711834 bohr
     new conv_thr            =            1.0E-12 Ry

     new unit-cell volume =    489.45715 a.u.^3 (    72.53007 Ang^3 )
     density =      6.90077 g/cm^3

CELL_PARAMETERS (alat=  9.11000000)
   0.985200641   0.000000000   0.000000000
   0.000000000   0.985200641   0.000000000
   0.000000000   0.000000000   0.666975951

ATOMIC_POSITIONS (crystal)
Sn      -0.000269444  -0.000269444   0.000000000
Sn       0.499748386   0.499748386   0.500000000
O        0.805382147   0.193705161   0.500000000
O        0.193705161   0.805382147   0.500000000
O        0.305531575   0.305531575   0.000000000
O        0.693902175   0.693902175   0.000000000



     Writing output data file SnO2.save
     NEW-OLD atomic charge density approx. for the potential

     Check: negative/imaginary core charge=   -0.000027    0.000000
     extrapolated charge   51.99822, renormalised to   52.00000

     total cpu time spent up to now is     4617.5 secs

     Self-consistent Calculation

     iteration #  1     ecut=    60.00 Ry     beta= 0.70
     Davidson diagonalization with overlap
     ethr =  1.00E-06,  avg # of iterations =  1.0

     Threshold (ethr) on eigenvalues was too large:
     Diagonalizing with lowered threshold

     Davidson diagonalization with overlap
     ethr =  3.11E-10,  avg # of iterations =  3.1

     total cpu time spent up to now is     4756.5 secs

     total energy              =    -447.55209243 Ry
     Harris-Foulkes estimate   =    -447.55584735 Ry
     estimated scf accuracy    <       0.00000012 Ry

     iteration #  2     ecut=    60.00 Ry     beta= 0.70
     Davidson diagonalization with overlap
     ethr =  2.23E-10,  avg # of iterations =  4.0

     total cpu time spent up to now is     4843.3 secs

     total energy              =    -447.55209259 Ry
     Harris-Foulkes estimate   =    -447.55209268 Ry
     estimated scf accuracy    <       0.00000025 Ry

     iteration #  3     ecut=    60.00 Ry     beta= 0.70
     Davidson diagonalization with overlap
     ethr =  2.23E-10,  avg # of iterations =  2.0

     total cpu time spent up to now is     4907.3 secs

     total energy              =    -447.55209260 Ry
     Harris-Foulkes estimate   =    -447.55209261 Ry
     estimated scf accuracy    <       0.00000003 Ry

     iteration #  4     ecut=    60.00 Ry     beta= 0.70
     Davidson diagonalization with overlap
     ethr =  5.52E-11,  avg # of iterations =  1.0

     total cpu time spent up to now is     4959.1 secs

     total energy              =    -447.55209260 Ry
     Harris-Foulkes estimate   =    -447.55209260 Ry
     estimated scf accuracy    <       0.00000001 Ry

     iteration #  5     ecut=    60.00 Ry     beta= 0.70
     Davidson diagonalization with overlap
     ethr =  2.39E-11,  avg # of iterations =  2.0

     total cpu time spent up to now is     5028.4 secs

     total energy              =    -447.55209260 Ry
     Harris-Foulkes estimate   =    -447.55209260 Ry
     estimated scf accuracy    <          3.3E-11 Ry

     iteration #  6     ecut=    60.00 Ry     beta= 0.70
     Davidson diagonalization with overlap
     ethr =  1.00E-13,  avg # of iterations =  4.0

     total cpu time spent up to now is     5113.7 secs

     total energy              =    -447.55209260 Ry
     Harris-Foulkes estimate   =    -447.55209260 Ry
     estimated scf accuracy    <          2.5E-11 Ry

     iteration #  7     ecut=    60.00 Ry     beta= 0.70
     Davidson diagonalization with overlap
     ethr =  1.00E-13,  avg # of iterations =  2.0

     total cpu time spent up to now is     5175.5 secs

     total energy              =    -447.55209260 Ry
     Harris-Foulkes estimate   =    -447.55209260 Ry
     estimated scf accuracy    <          1.2E-12 Ry

     iteration #  8     ecut=    60.00 Ry     beta= 0.70
     Davidson diagonalization with overlap
     ethr =  1.00E-13,  avg # of iterations =  1.0

     total cpu time spent up to now is     5227.1 secs

     total energy              =    -447.55209260 Ry
     Harris-Foulkes estimate   =    -447.55209260 Ry
     estimated scf accuracy    <          1.0E-12 Ry

     iteration #  9     ecut=    60.00 Ry     beta= 0.70
     Davidson diagonalization with overlap
     ethr =  1.00E-13,  avg # of iterations =  1.0

     total cpu time spent up to now is     5278.6 secs

     End of self-consistent calculation

     Number of k-points >= 100: set verbosity='high' to print the bands.

     highest occupied level (ev):     9.5792

!    total energy              =    -447.55209260 Ry
     Harris-Foulkes estimate   =    -447.55209260 Ry
     estimated scf accuracy    <          1.2E-13 Ry

     The total energy is the sum of the following terms:

     one-electron contribution =    -118.05533169 Ry
     hartree contribution      =      99.12324293 Ry
     xc contribution           =    -122.25666877 Ry
     ewald contribution        =    -306.36333508 Ry

     convergence has been achieved in   9 iterations

     Forces acting on atoms (cartesian axes, Ry/au):

     atom    1 type  1   force =    -0.00004186   -0.00004186    0.00000000
     atom    2 type  1   force =    -0.00005564   -0.00005564    0.00000000
     atom    3 type  2   force =     0.00014031    0.00004473    0.00000000
     atom    4 type  2   force =     0.00004473    0.00014031    0.00000000
     atom    5 type  2   force =     0.00000504    0.00000504    0.00000000
     atom    6 type  2   force =    -0.00009258   -0.00009258    0.00000000

     Total force =     0.000265     Total SCF correction =     0.000000


     Computing stress (Cartesian axis) and pressure

          total   stress  (Ry/bohr**3)                   (kbar)     P=    0.00
  -0.00000010   0.00000020   0.00000000         -0.02      0.03      0.00
   0.00000020  -0.00000010   0.00000000          0.03     -0.02      0.00
   0.00000000   0.00000000   0.00000027          0.00      0.00      0.04


     number of scf cycles    =   6
     number of bfgs steps    =   5

     enthalpy old            =    -447.5520924907 Ry
     enthalpy new            =    -447.5520925985 Ry

     CASE: enthalpy_new < enthalpy_old

     new trust radius        =       0.0001882967 bohr
     new conv_thr            =            1.0E-12 Ry

     new unit-cell volume =    489.45301 a.u.^3 (    72.52945 Ang^3 )
     density =      6.90082 g/cm^3

CELL_PARAMETERS (alat=  9.11000000)
   0.985188740   0.000000000   0.000000000
   0.000000000   0.985188740   0.000000000
   0.000000000   0.000000000   0.666986421

ATOMIC_POSITIONS (crystal)
Sn      -0.000275494  -0.000275494   0.000000000
Sn       0.499740695   0.499740695   0.500000000
O        0.805402044   0.193711814   0.500000000
O        0.193711814   0.805402044   0.500000000
O        0.305531976   0.305531976   0.000000000
O        0.693888965   0.693888965   0.000000000



     Writing output data file SnO2.save
     NEW-OLD atomic charge density approx. for the potential

     Check: negative/imaginary core charge=   -0.000027    0.000000
     extrapolated charge   51.99956, renormalised to   52.00000

     total cpu time spent up to now is     5306.2 secs

     Self-consistent Calculation

     iteration #  1     ecut=    60.00 Ry     beta= 0.70
     Davidson diagonalization with overlap
     ethr =  1.00E-06,  avg # of iterations =  1.0

     Threshold (ethr) on eigenvalues was too large:
     Diagonalizing with lowered threshold

     Davidson diagonalization with overlap
     ethr =  2.05E-10,  avg # of iterations =  3.2

     total cpu time spent up to now is     5448.2 secs

     total energy              =    -447.55209267 Ry
     Harris-Foulkes estimate   =    -447.55302137 Ry
     estimated scf accuracy    <       0.00000002 Ry

     iteration #  2     ecut=    60.00 Ry     beta= 0.70
     Davidson diagonalization with overlap
     ethr =  3.97E-11,  avg # of iterations =  3.0

     total cpu time spent up to now is     5527.4 secs

     total energy              =    -447.55209268 Ry
     Harris-Foulkes estimate   =    -447.55209268 Ry
     estimated scf accuracy    <       0.00000002 Ry

     iteration #  3     ecut=    60.00 Ry     beta= 0.70
     Davidson diagonalization with overlap
     ethr =  3.08E-11,  avg # of iterations =  2.0

     total cpu time spent up to now is     5591.0 secs

     total energy              =    -447.55209268 Ry
     Harris-Foulkes estimate   =    -447.55209268 Ry
     estimated scf accuracy    <          7.7E-10 Ry

     iteration #  4     ecut=    60.00 Ry     beta= 0.70
     Davidson diagonalization with overlap
     ethr =  1.49E-12,  avg # of iterations =  2.2

     total cpu time spent up to now is     5662.0 secs

     total energy              =    -447.55209268 Ry
     Harris-Foulkes estimate   =    -447.55209268 Ry
     estimated scf accuracy    <          2.3E-10 Ry

     iteration #  5     ecut=    60.00 Ry     beta= 0.70
     Davidson diagonalization with overlap
     ethr =  4.51E-13,  avg # of iterations =  3.1

     total cpu time spent up to now is     5729.5 secs

     total energy              =    -447.55209268 Ry
     Harris-Foulkes estimate   =    -447.55209268 Ry
     estimated scf accuracy    <          7.0E-11 Ry

     iteration #  6     ecut=    60.00 Ry     beta= 0.70
     Davidson diagonalization with overlap
     ethr =  1.34E-13,  avg # of iterations =  3.0

     total cpu time spent up to now is     5794.6 secs

     total energy              =    -447.55209268 Ry
     Harris-Foulkes estimate   =    -447.55209268 Ry
     estimated scf accuracy    <          1.9E-12 Ry

     iteration #  7     ecut=    60.00 Ry     beta= 0.70
     Davidson diagonalization with overlap
     ethr =  1.00E-13,  avg # of iterations =  1.0

     total cpu time spent up to now is     5845.7 secs

     End of self-consistent calculation

     Number of k-points >= 100: set verbosity='high' to print the bands.

     highest occupied level (ev):     9.5793

!    total energy              =    -447.55209268 Ry
     Harris-Foulkes estimate   =    -447.55209268 Ry
     estimated scf accuracy    <          3.6E-13 Ry

     The total energy is the sum of the following terms:

     one-electron contribution =    -118.05382580 Ry
     hartree contribution      =      99.12282383 Ry
     xc contribution           =    -122.25671026 Ry
     ewald contribution        =    -306.36438045 Ry

     convergence has been achieved in   7 iterations

     Forces acting on atoms (cartesian axes, Ry/au):

     atom    1 type  1   force =    -0.00004224   -0.00004224    0.00000000
     atom    2 type  1   force =    -0.00005635   -0.00005635    0.00000000
     atom    3 type  2   force =     0.00010373    0.00006003    0.00000000
     atom    4 type  2   force =     0.00006003    0.00010373    0.00000000
     atom    5 type  2   force =    -0.00001079   -0.00001079    0.00000000
     atom    6 type  2   force =    -0.00005437   -0.00005437    0.00000000

     Total force =     0.000212     Total SCF correction =     0.000002


     Computing stress (Cartesian axis) and pressure

          total   stress  (Ry/bohr**3)                   (kbar)     P=    0.03
   0.00000020   0.00000019   0.00000000          0.03      0.03      0.00
   0.00000019   0.00000020   0.00000000          0.03      0.03      0.00
   0.00000000   0.00000000   0.00000019          0.00      0.00      0.03


     number of scf cycles    =   7
     number of bfgs steps    =   6

     enthalpy old            =    -447.5520925986 Ry
     enthalpy new            =    -447.5520926793 Ry

     CASE: enthalpy_new < enthalpy_old

     new trust radius        =       0.0002824416 bohr
     new conv_thr            =            1.0E-12 Ry

     new unit-cell volume =    489.45181 a.u.^3 (    72.52927 Ang^3 )
     density =      6.90084 g/cm^3

CELL_PARAMETERS (alat=  9.11000000)
   0.985178865   0.000000000   0.000000000
   0.000000000   0.985178865   0.000000000
   0.000000000   0.000000000   0.666998161

ATOMIC_POSITIONS (crystal)
Sn      -0.000285808  -0.000285808   0.000000000
Sn       0.499727503   0.499727503   0.500000000
O        0.805430472   0.193725312   0.500000000
O        0.193725312   0.805430472   0.500000000
O        0.305530372   0.305530372   0.000000000
O        0.693872149   0.693872149   0.000000000



     Writing output data file SnO2.save
     NEW-OLD atomic charge density approx. for the potential

     Check: negative/imaginary core charge=   -0.000027    0.000000
     extrapolated charge   51.99987, renormalised to   52.00000

     total cpu time spent up to now is     5872.8 secs

     Self-consistent Calculation

     iteration #  1     ecut=    60.00 Ry     beta= 0.70
     Davidson diagonalization with overlap
     ethr =  1.00E-06,  avg # of iterations =  1.7

     Threshold (ethr) on eigenvalues was too large:
     Diagonalizing with lowered threshold

     Davidson diagonalization with overlap
     ethr =  4.19E-10,  avg # of iterations =  3.2

     total cpu time spent up to now is     6013.8 secs

     total energy              =    -447.55209276 Ry
     Harris-Foulkes estimate   =    -447.55236131 Ry
     estimated scf accuracy    <       0.00000003 Ry

     iteration #  2     ecut=    60.00 Ry     beta= 0.70
     Davidson diagonalization with overlap
     ethr =  5.34E-11,  avg # of iterations =  2.0

     total cpu time spent up to now is     6080.3 secs

     total energy              =    -447.55209276 Ry
     Harris-Foulkes estimate   =    -447.55209277 Ry
     estimated scf accuracy    <          3.2E-09 Ry

     iteration #  3     ecut=    60.00 Ry     beta= 0.70
     Davidson diagonalization with overlap
     ethr =  6.15E-12,  avg # of iterations =  2.5

     total cpu time spent up to now is     6152.3 secs

     total energy              =    -447.55209277 Ry
     Harris-Foulkes estimate   =    -447.55209277 Ry
     estimated scf accuracy    <          7.2E-10 Ry

     iteration #  4     ecut=    60.00 Ry     beta= 0.70
     Davidson diagonalization with overlap
     ethr =  1.39E-12,  avg # of iterations =  3.0

     total cpu time spent up to now is     6224.7 secs

     total energy              =    -447.55209277 Ry
     Harris-Foulkes estimate   =    -447.55209277 Ry
     estimated scf accuracy    <          2.2E-10 Ry

     iteration #  5     ecut=    60.00 Ry     beta= 0.70
     Davidson diagonalization with overlap
     ethr =  4.32E-13,  avg # of iterations =  3.2

     total cpu time spent up to now is     6293.7 secs

     total energy              =    -447.55209277 Ry
     Harris-Foulkes estimate   =    -447.55209277 Ry
     estimated scf accuracy    <          3.5E-11 Ry

     iteration #  6     ecut=    60.00 Ry     beta= 0.70
     Davidson diagonalization with overlap
     ethr =  1.00E-13,  avg # of iterations =  2.5

     total cpu time spent up to now is     6357.1 secs

     total energy              =    -447.55209277 Ry
     Harris-Foulkes estimate   =    -447.55209277 Ry
     estimated scf accuracy    <          1.6E-12 Ry

     iteration #  7     ecut=    60.00 Ry     beta= 0.70
     Davidson diagonalization with overlap
     ethr =  1.00E-13,  avg # of iterations =  1.0

     total cpu time spent up to now is     6409.0 secs

     End of self-consistent calculation

     Number of k-points >= 100: set verbosity='high' to print the bands.

     highest occupied level (ev):     9.5794

!    total energy              =    -447.55209277 Ry
     Harris-Foulkes estimate   =    -447.55209277 Ry
     estimated scf accuracy    <          1.1E-13 Ry

     The total energy is the sum of the following terms:

     one-electron contribution =    -118.05340696 Ry
     hartree contribution      =      99.12276268 Ry
     xc contribution           =    -122.25672503 Ry
     ewald contribution        =    -306.36472345 Ry

     convergence has been achieved in   7 iterations

     Forces acting on atoms (cartesian axes, Ry/au):

     atom    1 type  1   force =    -0.00003815   -0.00003815    0.00000000
     atom    2 type  1   force =    -0.00005137   -0.00005137    0.00000000
     atom    3 type  2   force =     0.00005847    0.00007293    0.00000000
     atom    4 type  2   force =     0.00007293    0.00005847    0.00000000
     atom    5 type  2   force =    -0.00002917   -0.00002917    0.00000000
     atom    6 type  2   force =    -0.00001272   -0.00001272    0.00000000

     Total force =     0.000166     Total SCF correction =     0.000001


     Computing stress (Cartesian axis) and pressure

          total   stress  (Ry/bohr**3)                   (kbar)     P=    0.04
   0.00000039   0.00000019   0.00000000          0.06      0.03      0.00
   0.00000019   0.00000039   0.00000000          0.03      0.06      0.00
  -0.00000000   0.00000000  -0.00000001         -0.00      0.00     -0.00


     number of scf cycles    =   8
     number of bfgs steps    =   7

     enthalpy old            =    -447.5520926793 Ry
     enthalpy new            =    -447.5520927655 Ry

     CASE: enthalpy_new < enthalpy_old

     new trust radius        =       0.0004236581 bohr
     new conv_thr            =            1.0E-12 Ry

     new unit-cell volume =    489.45248 a.u.^3 (    72.52937 Ang^3 )
     density =      6.90083 g/cm^3

CELL_PARAMETERS (alat=  9.11000000)
   0.985171377   0.000000000   0.000000000
   0.000000000   0.985171377   0.000000000
   0.000000000   0.000000000   0.667009215

ATOMIC_POSITIONS (crystal)
Sn      -0.000302468  -0.000302468   0.000000000
Sn       0.499706053   0.499706053   0.500000000
O        0.805470394   0.193750500   0.500000000
O        0.193750500   0.805470394   0.500000000
O        0.305524300   0.305524300   0.000000000
O        0.693851220   0.693851220   0.000000000



     Writing output data file SnO2.save
     NEW-OLD atomic charge density approx. for the potential

     Check: negative/imaginary core charge=   -0.000027    0.000000
     extrapolated charge   52.00007, renormalised to   52.00000

     total cpu time spent up to now is     6436.8 secs

     Self-consistent Calculation

     iteration #  1     ecut=    60.00 Ry     beta= 0.70
     Davidson diagonalization with overlap
     ethr =  1.00E-06,  avg # of iterations =  2.0

     Threshold (ethr) on eigenvalues was too large:
     Diagonalizing with lowered threshold

     Davidson diagonalization with overlap
     ethr =  4.73E-11,  avg # of iterations =  4.4

     total cpu time spent up to now is     6597.1 secs

     total energy              =    -447.55209284 Ry
     Harris-Foulkes estimate   =    -447.55194227 Ry
     estimated scf accuracy    <       0.00000006 Ry

     iteration #  2     ecut=    60.00 Ry     beta= 0.70
     Davidson diagonalization with overlap
     ethr =  1.07E-10,  avg # of iterations =  2.0

     total cpu time spent up to now is     6660.1 secs

     total energy              =    -447.55209284 Ry
     Harris-Foulkes estimate   =    -447.55209285 Ry
     estimated scf accuracy    <          4.6E-09 Ry

     iteration #  3     ecut=    60.00 Ry     beta= 0.70
     Davidson diagonalization with overlap
     ethr =  8.76E-12,  avg # of iterations =  2.6

     total cpu time spent up to now is     6730.9 secs

     total energy              =    -447.55209285 Ry
     Harris-Foulkes estimate   =    -447.55209285 Ry
     estimated scf accuracy    <          1.2E-09 Ry

     iteration #  4     ecut=    60.00 Ry     beta= 0.70
     Davidson diagonalization with overlap
     ethr =  2.24E-12,  avg # of iterations =  3.2

     total cpu time spent up to now is     6803.5 secs

     total energy              =    -447.55209285 Ry
     Harris-Foulkes estimate   =    -447.55209285 Ry
     estimated scf accuracy    <          3.7E-10 Ry

     iteration #  5     ecut=    60.00 Ry     beta= 0.70
     Davidson diagonalization with overlap
     ethr =  7.10E-13,  avg # of iterations =  3.4

     total cpu time spent up to now is     6870.8 secs

     total energy              =    -447.55209285 Ry
     Harris-Foulkes estimate   =    -447.55209285 Ry
     estimated scf accuracy    <          4.2E-11 Ry

     iteration #  6     ecut=    60.00 Ry     beta= 0.70
     Davidson diagonalization with overlap
     ethr =  1.00E-13,  avg # of iterations =  2.8

     total cpu time spent up to now is     6933.7 secs

     total energy              =    -447.55209285 Ry
     Harris-Foulkes estimate   =    -447.55209285 Ry
     estimated scf accuracy    <          1.2E-12 Ry

     iteration #  7     ecut=    60.00 Ry     beta= 0.70
     Davidson diagonalization with overlap
     ethr =  1.00E-13,  avg # of iterations =  1.0

     total cpu time spent up to now is     6984.6 secs

     End of self-consistent calculation

     Number of k-points >= 100: set verbosity='high' to print the bands.

     highest occupied level (ev):     9.5793

!    total energy              =    -447.55209285 Ry
     Harris-Foulkes estimate   =    -447.55209285 Ry
     estimated scf accuracy    <          8.3E-14 Ry

     The total energy is the sum of the following terms:

     one-electron contribution =    -118.05373736 Ry
     hartree contribution      =      99.12295119 Ry
     xc contribution           =    -122.25672343 Ry
     ewald contribution        =    -306.36458325 Ry

     convergence has been achieved in   7 iterations

     Forces acting on atoms (cartesian axes, Ry/au):

     atom    1 type  1   force =    -0.00002816   -0.00002816    0.00000000
     atom    2 type  1   force =    -0.00003783   -0.00003783    0.00000000
     atom    3 type  2   force =     0.00000513    0.00007713    0.00000000
     atom    4 type  2   force =     0.00007713    0.00000513    0.00000000
     atom    5 type  2   force =    -0.00004552   -0.00004552    0.00000000
     atom    6 type  2   force =     0.00002924    0.00002924    0.00000000

     Total force =     0.000149     Total SCF correction =     0.000001


     Computing stress (Cartesian axis) and pressure

          total   stress  (Ry/bohr**3)                   (kbar)     P=    0.04
   0.00000049   0.00000019   0.00000000          0.07      0.03      0.00
   0.00000019   0.00000049   0.00000000          0.03      0.07      0.00
   0.00000000   0.00000000  -0.00000023          0.00      0.00     -0.03


     number of scf cycles    =   9
     number of bfgs steps    =   8

     enthalpy old            =    -447.5520927655 Ry
     enthalpy new            =    -447.5520928460 Ry

     CASE: enthalpy_new < enthalpy_old

     new trust radius        =       0.0004280918 bohr
     new conv_thr            =            1.0E-12 Ry

     new unit-cell volume =    489.45484 a.u.^3 (    72.52972 Ang^3 )
     density =      6.90080 g/cm^3

CELL_PARAMETERS (alat=  9.11000000)
   0.985171823   0.000000000   0.000000000
   0.000000000   0.985171823   0.000000000
   0.000000000   0.000000000   0.667011829

ATOMIC_POSITIONS (crystal)
Sn      -0.000320255  -0.000320255   0.000000000
Sn       0.499683126   0.499683126   0.500000000
O        0.805506485   0.193781687   0.500000000
O        0.193781687   0.805506485   0.500000000
O        0.305513427   0.305513427   0.000000000
O        0.693835531   0.693835531   0.000000000



     Writing output data file SnO2.save
     NEW-OLD atomic charge density approx. for the potential

     Check: negative/imaginary core charge=   -0.000027    0.000000
     extrapolated charge   52.00025, renormalised to   52.00000

     total cpu time spent up to now is     7011.7 secs

     Self-consistent Calculation

     iteration #  1     ecut=    60.00 Ry     beta= 0.70
     Davidson diagonalization with overlap
     ethr =  1.00E-06,  avg # of iterations =  2.0

     Threshold (ethr) on eigenvalues was too large:
     Diagonalizing with lowered threshold

     Davidson diagonalization with overlap
     ethr =  4.92E-11,  avg # of iterations =  4.5

     total cpu time spent up to now is     7166.2 secs

     total energy              =    -447.55209288 Ry
     Harris-Foulkes estimate   =    -447.55156345 Ry
     estimated scf accuracy    <       0.00000006 Ry

     iteration #  2     ecut=    60.00 Ry     beta= 0.70
     Davidson diagonalization with overlap
     ethr =  1.06E-10,  avg # of iterations =  2.0

     total cpu time spent up to now is     7234.2 secs

     total energy              =    -447.55209289 Ry
     Harris-Foulkes estimate   =    -447.55209290 Ry
     estimated scf accuracy    <          8.6E-09 Ry

     iteration #  3     ecut=    60.00 Ry     beta= 0.70
     Davidson diagonalization with overlap
     ethr =  1.66E-11,  avg # of iterations =  2.3

     total cpu time spent up to now is     7304.2 secs

     total energy              =    -447.55209289 Ry
     Harris-Foulkes estimate   =    -447.55209289 Ry
     estimated scf accuracy    <          1.5E-09 Ry

     iteration #  4     ecut=    60.00 Ry     beta= 0.70
     Davidson diagonalization with overlap
     ethr =  2.83E-12,  avg # of iterations =  3.0

     total cpu time spent up to now is     7375.5 secs

     total energy              =    -447.55209289 Ry
     Harris-Foulkes estimate   =    -447.55209289 Ry
     estimated scf accuracy    <          3.4E-10 Ry

     iteration #  5     ecut=    60.00 Ry     beta= 0.70
     Davidson diagonalization with overlap
     ethr =  6.51E-13,  avg # of iterations =  3.3

     total cpu time spent up to now is     7446.2 secs

     total energy              =    -447.55209289 Ry
     Harris-Foulkes estimate   =    -447.55209289 Ry
     estimated scf accuracy    <          8.5E-11 Ry

     iteration #  6     ecut=    60.00 Ry     beta= 0.70
     Davidson diagonalization with overlap
     ethr =  1.63E-13,  avg # of iterations =  3.0

     total cpu time spent up to now is     7512.0 secs

     total energy              =    -447.55209289 Ry
     Harris-Foulkes estimate   =    -447.55209289 Ry
     estimated scf accuracy    <          2.6E-12 Ry

     iteration #  7     ecut=    60.00 Ry     beta= 0.70
     Davidson diagonalization with overlap
     ethr =  1.00E-13,  avg # of iterations =  1.0

     total cpu time spent up to now is     7564.2 secs

     End of self-consistent calculation

     Number of k-points >= 100: set verbosity='high' to print the bands.

     highest occupied level (ev):     9.5792

!    total energy              =    -447.55209289 Ry
     Harris-Foulkes estimate   =    -447.55209289 Ry
     estimated scf accuracy    <          2.6E-13 Ry

     The total energy is the sum of the following terms:

     one-electron contribution =    -118.05476793 Ry
     hartree contribution      =      99.12333203 Ry
     xc contribution           =    -122.25670560 Ry
     ewald contribution        =    -306.36395140 Ry

     convergence has been achieved in   7 iterations

     Forces acting on atoms (cartesian axes, Ry/au):

     atom    1 type  1   force =    -0.00001536   -0.00001536    0.00000000
     atom    2 type  1   force =    -0.00001902   -0.00001902    0.00000000
     atom    3 type  2   force =    -0.00002936    0.00006211    0.00000000
     atom    4 type  2   force =     0.00006211   -0.00002936    0.00000000
     atom    5 type  2   force =    -0.00004616   -0.00004616    0.00000000
     atom    6 type  2   force =     0.00004781    0.00004781    0.00000000

     Total force =     0.000140     Total SCF correction =     0.000003


     Computing stress (Cartesian axis) and pressure

          total   stress  (Ry/bohr**3)                   (kbar)     P=    0.03
   0.00000043   0.00000019   0.00000000          0.06      0.03      0.00
   0.00000019   0.00000043   0.00000000          0.03      0.06      0.00
   0.00000000   0.00000000  -0.00000032          0.00      0.00     -0.05


     number of scf cycles    =  10
     number of bfgs steps    =   9

     enthalpy old            =    -447.5520928460 Ry
     enthalpy new            =    -447.5520928933 Ry

     CASE: enthalpy_new < enthalpy_old

     new trust radius        =       0.0002434484 bohr
     new conv_thr            =            1.0E-12 Ry

     new unit-cell volume =    489.45733 a.u.^3 (    72.53009 Ang^3 )
     density =      6.90076 g/cm^3

CELL_PARAMETERS (alat=  9.11000000)
   0.985179043   0.000000000   0.000000000
   0.000000000   0.985179043   0.000000000
   0.000000000   0.000000000   0.667005439

ATOMIC_POSITIONS (crystal)
Sn      -0.000330754  -0.000330754   0.000000000
Sn       0.499669819   0.499669819   0.500000000
O        0.805522037   0.193803912   0.500000000
O        0.193803912   0.805522037   0.500000000
O        0.305502992   0.305502992   0.000000000
O        0.693831994   0.693831994   0.000000000



     Writing output data file SnO2.save
     NEW-OLD atomic charge density approx. for the potential

     Check: negative/imaginary core charge=   -0.000027    0.000000
     extrapolated charge   52.00026, renormalised to   52.00000

     total cpu time spent up to now is     7591.5 secs

     Self-consistent Calculation

     iteration #  1     ecut=    60.00 Ry     beta= 0.70
     Davidson diagonalization with overlap
     ethr =  1.00E-06,  avg # of iterations =  1.5

     Threshold (ethr) on eigenvalues was too large:
     Diagonalizing with lowered threshold

     Davidson diagonalization with overlap
     ethr =  4.26E-10,  avg # of iterations =  3.2

     total cpu time spent up to now is     7732.2 secs

     total energy              =    -447.55209291 Ry
     Harris-Foulkes estimate   =    -447.55153570 Ry
     estimated scf accuracy    <       0.00000002 Ry

     iteration #  2     ecut=    60.00 Ry     beta= 0.70
     Davidson diagonalization with overlap
     ethr =  3.86E-11,  avg # of iterations =  2.1

     total cpu time spent up to now is     7805.7 secs

     total energy              =    -447.55209292 Ry
     Harris-Foulkes estimate   =    -447.55209292 Ry
     estimated scf accuracy    <          6.0E-09 Ry

     iteration #  3     ecut=    60.00 Ry     beta= 0.70
     Davidson diagonalization with overlap
     ethr =  1.16E-11,  avg # of iterations =  2.0

     total cpu time spent up to now is     7872.9 secs

     total energy              =    -447.55209292 Ry
     Harris-Foulkes estimate   =    -447.55209292 Ry
     estimated scf accuracy    <          4.0E-10 Ry

     iteration #  4     ecut=    60.00 Ry     beta= 0.70
     Davidson diagonalization with overlap
     ethr =  7.60E-13,  avg # of iterations =  3.0

     total cpu time spent up to now is     7949.4 secs

     total energy              =    -447.55209292 Ry
     Harris-Foulkes estimate   =    -447.55209292 Ry
     estimated scf accuracy    <          9.6E-11 Ry

     iteration #  5     ecut=    60.00 Ry     beta= 0.70
     Davidson diagonalization with overlap
     ethr =  1.85E-13,  avg # of iterations =  3.1

     total cpu time spent up to now is     8019.6 secs

     total energy              =    -447.55209292 Ry
     Harris-Foulkes estimate   =    -447.55209292 Ry
     estimated scf accuracy    <          3.9E-11 Ry

     iteration #  6     ecut=    60.00 Ry     beta= 0.70
     Davidson diagonalization with overlap
     ethr =  1.00E-13,  avg # of iterations =  2.9

     total cpu time spent up to now is     8083.7 secs

     total energy              =    -447.55209292 Ry
     Harris-Foulkes estimate   =    -447.55209292 Ry
     estimated scf accuracy    <          1.2E-12 Ry

     iteration #  7     ecut=    60.00 Ry     beta= 0.70
     Davidson diagonalization with overlap
     ethr =  1.00E-13,  avg # of iterations =  1.0

     total cpu time spent up to now is     8135.2 secs

     End of self-consistent calculation

     Number of k-points >= 100: set verbosity='high' to print the bands.

     highest occupied level (ev):     9.5792

!    total energy              =    -447.55209292 Ry
     Harris-Foulkes estimate   =    -447.55209292 Ry
     estimated scf accuracy    <          1.7E-13 Ry

     The total energy is the sum of the following terms:

     one-electron contribution =    -118.05582041 Ry
     hartree contribution      =      99.12366192 Ry
     xc contribution           =    -122.25668375 Ry
     ewald contribution        =    -306.36325067 Ry

     convergence has been achieved in   7 iterations

     Forces acting on atoms (cartesian axes, Ry/au):

     atom    1 type  1   force =    -0.00000501   -0.00000501    0.00000000
     atom    2 type  1   force =    -0.00000572   -0.00000572    0.00000000
     atom    3 type  2   force =    -0.00003032    0.00003566    0.00000000
     atom    4 type  2   force =     0.00003566   -0.00003032    0.00000000
     atom    5 type  2   force =    -0.00003087   -0.00003087    0.00000000
     atom    6 type  2   force =     0.00003627    0.00003627    0.00000000

     Total force =     0.000095     Total SCF correction =     0.000002


     Computing stress (Cartesian axis) and pressure

          total   stress  (Ry/bohr**3)                   (kbar)     P=    0.01
   0.00000025   0.00000019   0.00000000          0.04      0.03      0.00
   0.00000019   0.00000025   0.00000000          0.03      0.04      0.00
   0.00000000   0.00000000  -0.00000024          0.00      0.00     -0.04


     number of scf cycles    =  11
     number of bfgs steps    =  10

     enthalpy old            =    -447.5520928933 Ry
     enthalpy new            =    -447.5520929176 Ry

     CASE: enthalpy_new < enthalpy_old

     new trust radius        =       0.0001269404 bohr
     new conv_thr            =            1.0E-12 Ry

     new unit-cell volume =    489.45938 a.u.^3 (    72.53040 Ang^3 )
     density =      6.90073 g/cm^3

CELL_PARAMETERS (alat=  9.11000000)
   0.985188955   0.000000000   0.000000000
   0.000000000   0.985188955   0.000000000
   0.000000000   0.000000000   0.666994811

ATOMIC_POSITIONS (crystal)
Sn      -0.000335489  -0.000335489   0.000000000
Sn       0.499663936   0.499663936   0.500000000
O        0.805523755   0.193817951   0.500000000
O        0.193817951   0.805523755   0.500000000
O        0.305494161   0.305494161   0.000000000
O        0.693835686   0.693835686   0.000000000



     Writing output data file SnO2.save
     NEW-OLD atomic charge density approx. for the potential

     Check: negative/imaginary core charge=   -0.000027    0.000000
     extrapolated charge   52.00022, renormalised to   52.00000

     total cpu time spent up to now is     8162.7 secs

     Self-consistent Calculation

     iteration #  1     ecut=    60.00 Ry     beta= 0.70
     Davidson diagonalization with overlap
     ethr =  1.00E-06,  avg # of iterations =  1.1

     Threshold (ethr) on eigenvalues was too large:
     Diagonalizing with lowered threshold

     Davidson diagonalization with overlap
     ethr =  1.38E-10,  avg # of iterations =  3.1

     total cpu time spent up to now is     8305.5 secs

     total energy              =    -447.55209293 Ry
     Harris-Foulkes estimate   =    -447.55163301 Ry
     estimated scf accuracy    <          8.6E-09 Ry

     iteration #  2     ecut=    60.00 Ry     beta= 0.70
     Davidson diagonalization with overlap
     ethr =  1.66E-11,  avg # of iterations =  3.0

     total cpu time spent up to now is     8382.2 secs

     total energy              =    -447.55209293 Ry
     Harris-Foulkes estimate   =    -447.55209293 Ry
     estimated scf accuracy    <          3.7E-09 Ry

     iteration #  3     ecut=    60.00 Ry     beta= 0.70
     Davidson diagonalization with overlap
     ethr =  7.16E-12,  avg # of iterations =  2.0

     total cpu time spent up to now is     8447.0 secs

     total energy              =    -447.55209293 Ry
     Harris-Foulkes estimate   =    -447.55209293 Ry
     estimated scf accuracy    <          1.8E-10 Ry

     iteration #  4     ecut=    60.00 Ry     beta= 0.70
     Davidson diagonalization with overlap
     ethr =  3.38E-13,  avg # of iterations =  3.0

     total cpu time spent up to now is     8523.3 secs

     total energy              =    -447.55209293 Ry
     Harris-Foulkes estimate   =    -447.55209293 Ry
     estimated scf accuracy    <          4.2E-11 Ry

     iteration #  5     ecut=    60.00 Ry     beta= 0.70
     Davidson diagonalization with overlap
     ethr =  1.00E-13,  avg # of iterations =  3.0

     total cpu time spent up to now is     8591.0 secs

     total energy              =    -447.55209293 Ry
     Harris-Foulkes estimate   =    -447.55209293 Ry
     estimated scf accuracy    <          1.2E-11 Ry

     iteration #  6     ecut=    60.00 Ry     beta= 0.70
     Davidson diagonalization with overlap
     ethr =  1.00E-13,  avg # of iterations =  2.0

     total cpu time spent up to now is     8647.6 secs

     End of self-consistent calculation

     Number of k-points >= 100: set verbosity='high' to print the bands.

     highest occupied level (ev):     9.5791

!    total energy              =    -447.55209293 Ry
     Harris-Foulkes estimate   =    -447.55209293 Ry
     estimated scf accuracy    <          4.4E-13 Ry

     The total energy is the sum of the following terms:

     one-electron contribution =    -118.05668518 Ry
     hartree contribution      =      99.12389814 Ry
     xc contribution           =    -122.25666310 Ry
     ewald contribution        =    -306.36264280 Ry

     convergence has been achieved in   6 iterations

     Forces acting on atoms (cartesian axes, Ry/au):

     atom    1 type  1   force =     0.00000199    0.00000199    0.00000000
     atom    2 type  1   force =     0.00000098    0.00000098    0.00000000
     atom    3 type  2   force =    -0.00001199    0.00000634    0.00000000
     atom    4 type  2   force =     0.00000634   -0.00001199    0.00000000
     atom    5 type  2   force =    -0.00000780   -0.00000780    0.00000000
     atom    6 type  2   force =     0.00001048    0.00001048    0.00000000

     Total force =     0.000027     Total SCF correction =     0.000002


     Computing stress (Cartesian axis) and pressure

          total   stress  (Ry/bohr**3)                   (kbar)     P=   -0.00
   0.00000004   0.00000019   0.00000000          0.01      0.03      0.00
   0.00000019   0.00000004   0.00000000          0.03      0.01      0.00
   0.00000000   0.00000000  -0.00000008          0.00      0.00     -0.01


     number of scf cycles    =  12
     number of bfgs steps    =  11

     enthalpy old            =    -447.5520929176 Ry
     enthalpy new            =    -447.5520929299 Ry

     CASE: enthalpy_new < enthalpy_old

     small trust_radius: resetting bfgs history

     new trust radius        =       0.0000148206 bohr
     new conv_thr            =            1.0E-12 Ry

     new unit-cell volume =    489.45935 a.u.^3 (    72.53039 Ang^3 )
     density =      6.90073 g/cm^3

CELL_PARAMETERS (alat=  9.11000000)
   0.985189904   0.000000000   0.000000000
   0.000000000   0.985189904   0.000000000
   0.000000000   0.000000000   0.666993487

ATOMIC_POSITIONS (crystal)
Sn      -0.000335267  -0.000335267   0.000000000
Sn       0.499664046   0.499664046   0.500000000
O        0.805522419   0.193818657   0.500000000
O        0.193818657   0.805522419   0.500000000
[...]
     one-electron contribution =    -118.05664174 Ry
     hartree contribution      =      99.12387285 Ry
     xc contribution           =    -122.25666398 Ry
     ewald contribution        =    -306.36266006 Ry

     convergence has been achieved in   3 iterations

     Forces acting on atoms (cartesian axes, Ry/au):

     atom    1 type  1   force =     0.00000169    0.00000169    0.00000000
     atom    2 type  1   force =     0.00000211    0.00000211    0.00000000
     atom    3 type  2   force =    -0.00000794    0.00000255    0.00000000
     atom    4 type  2   force =     0.00000255   -0.00000794    0.00000000
     atom    5 type  2   force =    -0.00000422   -0.00000422    0.00000000
     atom    6 type  2   force =     0.00000582    0.00000582    0.00000000

     Total force =     0.000016     Total SCF correction =     0.000001


     Computing stress (Cartesian axis) and pressure

          total   stress  (Ry/bohr**3)                   (kbar)     P=    0.00
   0.00000003   0.00000020   0.00000000          0.00      0.03      0.00
   0.00000020   0.00000003   0.00000000          0.03      0.00      0.00
   0.00000000   0.00000000  -0.00000005          0.00      0.00     -0.01


     number of scf cycles    =  13
     number of bfgs steps    =  12

     enthalpy old            =    -447.5520929299 Ry
     enthalpy new            =    -447.5520929306 Ry

     CASE: enthalpy_new < enthalpy_old

     Message from routine bfgs:
     history already reset at previous step: stopping
     small trust_radius: resetting bfgs history

     new trust radius        =       0.0000083409 bohr
     new conv_thr            =            6.7E-14 Ry

     new unit-cell volume =    489.45950 a.u.^3 (    72.53041 Ang^3 )
     density =      6.90073 g/cm^3

CELL_PARAMETERS (alat=  9.11000000)
   0.985190675   0.000000000   0.000000000
   0.000000000   0.985190675   0.000000000
   0.000000000   0.000000000   0.666992650

ATOMIC_POSITIONS (crystal)
Sn      -0.000335078  -0.000335078   0.000000000
Sn       0.499664280   0.499664280   0.500000000
O        0.805521534   0.193818941   0.500000000
O        0.193818941   0.805521534   0.500000000
O        0.305492821   0.305492821   0.000000000
O        0.693837502   0.693837502   0.000000000



     Writing output data file SnO2.save
     NEW-OLD atomic charge density approx. for the potential

     Check: negative/imaginary core charge=   -0.000027    0.000000
     extrapolated charge   52.00002, renormalised to   52.00000

     total cpu time spent up to now is     8967.3 secs

     Self-consistent Calculation

     iteration #  1     ecut=    60.00 Ry     beta= 0.70
     Davidson diagonalization with overlap
     ethr =  1.00E-06,  avg # of iterations =  1.0

     Threshold (ethr) on eigenvalues was too large:
     Diagonalizing with lowered threshold

     Davidson diagonalization with overlap
     ethr =  3.30E-13,  avg # of iterations =  3.5

     total cpu time spent up to now is     9112.0 secs

     total energy              =    -447.55209293 Ry
     Harris-Foulkes estimate   =    -447.55205873 Ry
     estimated scf accuracy    <          5.2E-11 Ry

     iteration #  2     ecut=    60.00 Ry     beta= 0.70
     Davidson diagonalization with overlap
     ethr =  1.00E-13,  avg # of iterations =  3.0

     total cpu time spent up to now is     9192.3 secs

     total energy              =    -447.55209293 Ry
     Harris-Foulkes estimate   =    -447.55209293 Ry
     estimated scf accuracy    <          3.2E-11 Ry

     iteration #  3     ecut=    60.00 Ry     beta= 0.70
     Davidson diagonalization with overlap
     ethr =  1.00E-13,  avg # of iterations =  2.0

     total cpu time spent up to now is     9254.9 secs

     total energy              =    -447.55209293 Ry
     Harris-Foulkes estimate   =    -447.55209293 Ry
     estimated scf accuracy    <          2.2E-12 Ry

     iteration #  4     ecut=    60.00 Ry     beta= 0.70
     Davidson diagonalization with overlap
     ethr =  1.00E-13,  avg # of iterations =  1.0

     total cpu time spent up to now is     9307.2 secs

     total energy              =    -447.55209293 Ry
     Harris-Foulkes estimate   =    -447.55209293 Ry
     estimated scf accuracy    <          3.3E-13 Ry

     iteration #  5     ecut=    60.00 Ry     beta= 0.70
     Davidson diagonalization with overlap
     ethr =  1.00E-13,  avg # of iterations =  1.0

     total cpu time spent up to now is     9358.8 secs

     End of self-consistent calculation

     Number of k-points >= 100: set verbosity='high' to print the bands.

     highest occupied level (ev):     9.5791

!    total energy              =    -447.55209293 Ry
     Harris-Foulkes estimate   =    -447.55209293 Ry
     estimated scf accuracy    <          4.7E-14 Ry

     The total energy is the sum of the following terms:

     one-electron contribution =    -118.05668900 Ry
     hartree contribution      =      99.12388051 Ry
     xc contribution           =    -122.25666182 Ry
     ewald contribution        =    -306.36262263 Ry

     convergence has been achieved in   5 iterations

     Forces acting on atoms (cartesian axes, Ry/au):

     atom    1 type  1   force =     0.00000106    0.00000106    0.00000000
     atom    2 type  1   force =     0.00000144    0.00000144    0.00000000
     atom    3 type  2   force =    -0.00000506    0.00000035    0.00000000
     atom    4 type  2   force =     0.00000035   -0.00000506    0.00000000
     atom    5 type  2   force =    -0.00000183   -0.00000183    0.00000000
     atom    6 type  2   force =     0.00000403    0.00000403    0.00000000

     Total force =     0.000010     Total SCF correction =     0.000000


     Computing stress (Cartesian axis) and pressure

          total   stress  (Ry/bohr**3)                   (kbar)     P=   -0.00
   0.00000001   0.00000019   0.00000000          0.00      0.03      0.00
   0.00000019   0.00000001  -0.00000000          0.03      0.00     -0.00
   0.00000000  -0.00000000  -0.00000004          0.00     -0.00     -0.01


     bfgs converged in  14 scf cycles and  13 bfgs steps
     (criteria: energy <  1.0E-10 Ry, force <  1.0E-09Ry/Bohr, cell <  5.0E-01kbar)

     End of BFGS Geometry Optimization

     Final enthalpy =    -447.5520929309 Ry
Begin final coordinates
     new unit-cell volume =    489.45950 a.u.^3 (    72.53041 Ang^3 )
     density =      6.90073 g/cm^3

CELL_PARAMETERS (alat=  9.11000000)
   0.985190675   0.000000000   0.000000000
   0.000000000   0.985190675   0.000000000
   0.000000000   0.000000000   0.666992650

ATOMIC_POSITIONS (crystal)
Sn      -0.000335078  -0.000335078   0.000000000
Sn       0.499664280   0.499664280   0.500000000
O        0.805521534   0.193818941   0.500000000
O        0.193818941   0.805521534   0.500000000
O        0.305492821   0.305492821   0.000000000
O        0.693837502   0.693837502   0.000000000
End final coordinates



     A final scf calculation at the relaxed structure.
     The G-vectors are recalculated for the final unit cell
     Results may differ from those at the preceding step.
 
     Parallelization info
     --------------------
     sticks:   dense  smooth     PW     G-vecs:    dense   smooth      PW
     Min         770     770    231                15328    15328    2504
     Max         771     771    234                15329    15329    2505
     Sum        1541    1541    465                30657    30657    5009
 


     bravais-lattice index     =            6
     lattice parameter (alat)  =       9.1100  a.u.
     unit-cell volume          =     489.4595 (a.u.)^3
     number of atoms/cell      =            6
     number of atomic types    =            2
     number of electrons       =        52.00
     number of Kohn-Sham states=           26
     kinetic-energy cutoff     =      60.0000  Ry
     charge density cutoff     =     240.0000  Ry
     convergence threshold     =      6.7E-14
     mixing beta               =       0.7000
     number of iterations used =            8  plain     mixing
     Exchange-correlation      = PBE ( 1  4  3  4 0 0)

     celldm(1)=   9.110000  celldm(2)=   0.000000  celldm(3)=   0.670000
     celldm(4)=   0.000000  celldm(5)=   0.000000  celldm(6)=   0.000000

     crystal axes: (cart. coord. in units of alat)
               a(1) = (   0.985191   0.000000   0.000000 )  
               a(2) = (   0.000000   0.985191   0.000000 )  
               a(3) = (   0.000000   0.000000   0.666993 )  

     reciprocal axes: (cart. coord. in units 2 pi/alat)
               b(1) = (  1.015032  0.000000  0.000000 )  
               b(2) = (  0.000000  1.015032  0.000000 )  
               b(3) = (  0.000000  0.000000  1.499267 )  


     PseudoPot. # 1 for Sn read from file:
     ../../Pseudo_potentials/Sn_PBE.upf
     MD5 check sum: 78e6386ae56e929f0568ae8bf606a80c
     Pseudo is Norm-conserving + core correction, Zval = 14.0
     Generated using ONCVPSP code by D. R. Hamann
     Using radial grid of 1628 points,  6 beta functions with: 
                l(1) =   0
                l(2) =   0
                l(3) =   1
                l(4) =   1
                l(5) =   2
                l(6) =   2

     PseudoPot. # 2 for O  read from file:
     ../../Pseudo_potentials/O_PBE.upf
     MD5 check sum: 3e3f909f7470e8921608ab6b1f57bbae
     Pseudo is Norm-conserving + core correction, Zval =  6.0
     Generated using ONCVPSP code by D. R. Hamann
     Using radial grid of  936 points,  5 beta functions with: 
                l(1) =   0
                l(2) =   0
                l(3) =   1
                l(4) =   1
                l(5) =   2

     atomic species   valence    mass     pseudopotential
        Sn            14.00   118.71000     Sn( 1.00)
        O              6.00    15.99900     O ( 1.00)

      4 Sym. Ops. (no inversion) found



   Cartesian axes

     site n.     atom                  positions (alat units)
         1           Sn  tau(   1) = (  -0.0003301  -0.0003301   0.0000000  )
         2           Sn  tau(   2) = (   0.4922646   0.4922646   0.3334963  )
         3           O   tau(   3) = (   0.7935923   0.1909486   0.3334963  )
         4           O   tau(   4) = (   0.1909486   0.7935923   0.3334963  )
         5           O   tau(   5) = (   0.3009687   0.3009687   0.0000000  )
         6           O   tau(   6) = (   0.6835622   0.6835622   0.0000000  )

     number of k points=   301

     Number of k-points >= 100: set verbosity='high' to print them.

     Dense  grid:    30657 G-vectors     FFT dimensions: (  45,  45,  30)

     Estimated max dynamical RAM per process >     255.62 MB

     Estimated total dynamical RAM >     511.24 MB

     Check: negative/imaginary core charge=   -0.000037    0.000000

     Initial potential from superposition of free atoms

     starting charge   51.99690, renormalised to   52.00000
     Starting wfc are   34 randomized atomic wfcs

     Writing output data file SnO2.save

     total cpu time spent up to now is     9408.4 secs

     Self-consistent Calculation

     iteration #  1     ecut=    60.00 Ry     beta= 0.70
     Davidson diagonalization with overlap
     ethr =  1.00E-06,  avg # of iterations =  5.5

     total cpu time spent up to now is     9530.3 secs

     total energy              =    -446.88924688 Ry
     Harris-Foulkes estimate   =    -447.99185292 Ry
     estimated scf accuracy    <       1.51055068 Ry

     iteration #  2     ecut=    60.00 Ry     beta= 0.70
     Davidson diagonalization with overlap
     ethr =  2.90E-03,  avg # of iterations =  3.0

     total cpu time spent up to now is     9597.8 secs

     total energy              =    -447.26375064 Ry
     Harris-Foulkes estimate   =    -447.93833950 Ry
     estimated scf accuracy    <       1.35677609 Ry

     iteration #  3     ecut=    60.00 Ry     beta= 0.70
     Davidson diagonalization with overlap
     ethr =  2.61E-03,  avg # of iterations =  3.0

     total cpu time spent up to now is     9663.4 secs

     total energy              =    -447.53843244 Ry
     Harris-Foulkes estimate   =    -447.53933083 Ry
     estimated scf accuracy    <       0.00602514 Ry

     iteration #  4     ecut=    60.00 Ry     beta= 0.70
     Davidson diagonalization with overlap
     ethr =  1.16E-05,  avg # of iterations =  2.9

     total cpu time spent up to now is     9733.1 secs

     total energy              =    -447.54081365 Ry
     Harris-Foulkes estimate   =    -447.54096481 Ry
     estimated scf accuracy    <       0.00032365 Ry

     iteration #  5     ecut=    60.00 Ry     beta= 0.70
     Davidson diagonalization with overlap
     ethr =  6.22E-07,  avg # of iterations =  3.0

     total cpu time spent up to now is     9793.0 secs

     total energy              =    -447.54083868 Ry
     Harris-Foulkes estimate   =    -447.54084742 Ry
     estimated scf accuracy    <       0.00002600 Ry

     iteration #  6     ecut=    60.00 Ry     beta= 0.70
     Davidson diagonalization with overlap
     ethr =  5.00E-08,  avg # of iterations =  2.4

     total cpu time spent up to now is     9861.3 secs

     total energy              =    -447.54084440 Ry
     Harris-Foulkes estimate   =    -447.54084499 Ry
     estimated scf accuracy    <       0.00000201 Ry

     iteration #  7     ecut=    60.00 Ry     beta= 0.70
     Davidson diagonalization with overlap
     ethr =  3.86E-09,  avg # of iterations =  2.3

     total cpu time spent up to now is     9926.5 secs

     total energy              =    -447.54093358 Ry
     Harris-Foulkes estimate   =    -447.54093364 Ry
     estimated scf accuracy    <       0.00000017 Ry

     iteration #  8     ecut=    60.00 Ry     beta= 0.70
     Davidson diagonalization with overlap
     ethr =  3.25E-10,  avg # of iterations =  3.3

     total cpu time spent up to now is     9994.3 secs

     total energy              =    -447.54093361 Ry
     Harris-Foulkes estimate   =    -447.54093363 Ry
     estimated scf accuracy    <       0.00000004 Ry

     iteration #  9     ecut=    60.00 Ry     beta= 0.70
     Davidson diagonalization with overlap
     ethr =  8.45E-11,  avg # of iterations =  3.0

     total cpu time spent up to now is    10057.2 secs

     total energy              =    -447.54093362 Ry
     Harris-Foulkes estimate   =    -447.54093362 Ry
     estimated scf accuracy    <       0.00000001 Ry

     iteration # 10     ecut=    60.00 Ry     beta= 0.70
     Davidson diagonalization with overlap
     ethr =  1.95E-11,  avg # of iterations =  2.0

     total cpu time spent up to now is    10118.2 secs

     total energy              =    -447.54093362 Ry
     Harris-Foulkes estimate   =    -447.54093362 Ry
     estimated scf accuracy    <          1.8E-10 Ry

     iteration # 11     ecut=    60.00 Ry     beta= 0.70
     Davidson diagonalization with overlap
     ethr =  3.55E-13,  avg # of iterations =  3.8

     total cpu time spent up to now is    10189.1 secs

     total energy              =    -447.54093362 Ry
     Harris-Foulkes estimate   =    -447.54093362 Ry
     estimated scf accuracy    <          1.0E-10 Ry

     iteration # 12     ecut=    60.00 Ry     beta= 0.70
     Davidson diagonalization with overlap
     ethr =  1.92E-13,  avg # of iterations =  3.0

     total cpu time spent up to now is    10250.6 secs

     total energy              =    -447.54093362 Ry
     Harris-Foulkes estimate   =    -447.54093362 Ry
     estimated scf accuracy    <          9.4E-12 Ry

     iteration # 13     ecut=    60.00 Ry     beta= 0.70
     Davidson diagonalization with overlap
     ethr =  1.00E-13,  avg # of iterations =  1.8

     total cpu time spent up to now is    10300.6 secs

     total energy              =    -447.54093362 Ry
     Harris-Foulkes estimate   =    -447.54093362 Ry
     estimated scf accuracy    <          4.8E-13 Ry

     iteration # 14     ecut=    60.00 Ry     beta= 0.70
     Davidson diagonalization with overlap
     ethr =  1.00E-13,  avg # of iterations =  1.0

     total cpu time spent up to now is    10349.3 secs

     End of self-consistent calculation

     Number of k-points >= 100: set verbosity='high' to print the bands.

     highest occupied level (ev):     9.5835

!    total energy              =    -447.54093362 Ry
     Harris-Foulkes estimate   =    -447.54093362 Ry
     estimated scf accuracy    <          5.8E-14 Ry

     The total energy is the sum of the following terms:

     one-electron contribution =    -118.03637869 Ry
     hartree contribution      =      99.10996968 Ry
     xc contribution           =    -122.25190197 Ry
     ewald contribution        =    -306.36262263 Ry

     convergence has been achieved in  14 iterations

     Forces acting on atoms (cartesian axes, Ry/au):

     atom    1 type  1   force =     0.00000028    0.00000028    0.00000000
     atom    2 type  1   force =     0.00000129    0.00000129    0.00000000
     atom    3 type  2   force =     0.00007078   -0.00007321    0.00000000
     atom    4 type  2   force =    -0.00007321    0.00007078    0.00000000
     atom    5 type  2   force =     0.00003987    0.00003987    0.00000000
     atom    6 type  2   force =    -0.00003901   -0.00003901    0.00000000

     Total force =     0.000164     Total SCF correction =     0.000001


     Computing stress (Cartesian axis) and pressure

          total   stress  (Ry/bohr**3)                   (kbar)     P=  -26.04
  -0.00020114   0.00000022   0.00000000        -29.59      0.03      0.00
   0.00000022  -0.00020114   0.00000000          0.03    -29.59      0.00
   0.00000000   0.00000000  -0.00012882          0.00      0.00    -18.95


     Writing output data file SnO2.save
 
     init_run     :     50.02s CPU     50.83s WALL (       2 calls)
     electrons    :   9771.87s CPU   9918.92s WALL (      15 calls)
     update_pot   :     21.73s CPU     21.82s WALL (      13 calls)
     forces       :     85.11s CPU     85.98s WALL (      15 calls)
     stress       :    287.29s CPU    290.13s WALL (      15 calls)

     Called by init_run:
     wfcinit      :     47.97s CPU     48.76s WALL (       2 calls)
     potinit      :      0.59s CPU      0.60s WALL (       2 calls)
     hinit0       :      1.16s CPU      1.17s WALL (       2 calls)

     Called by electrons:
     c_bands      :   8607.40s CPU   8737.20s WALL (     146 calls)
     sum_band     :   1159.88s CPU   1176.31s WALL (     146 calls)
     v_of_rho     :      4.21s CPU      4.24s WALL (     150 calls)
     mix_rho      :      0.62s CPU      0.67s WALL (     146 calls)

     Called by c_bands:
     init_us_2    :    182.80s CPU    189.74s WALL (   97524 calls)
     cegterg      :   7705.39s CPU   7829.23s WALL (   43946 calls)

     Called by sum_band:

     Called by *egterg:
     h_psi        :   6457.92s CPU   6582.56s WALL (  154298 calls)
     g_psi        :     95.09s CPU     95.77s WALL (  109750 calls)
     cdiaghg      :    308.06s CPU    303.89s WALL (  146472 calls)

     Called by h_psi:
     h_psi:pot    :   6430.55s CPU   6551.14s WALL (  154298 calls)
     h_psi:calbec :    391.62s CPU    368.73s WALL (  154298 calls)
     vloc_psi     :   5749.66s CPU   5823.98s WALL (  154298 calls)
     add_vuspsi   :    288.92s CPU    357.69s WALL (  154298 calls)

     General routines
     calbec       :    465.59s CPU    434.49s WALL (  176873 calls)
     fft          :      2.46s CPU      2.60s WALL (    1899 calls)
     ffts         :      0.22s CPU      0.20s WALL (     146 calls)
     fftw         :   6520.68s CPU   6413.37s WALL ( 7462744 calls)
 
     Parallel routines
     fft_scatt_xy :    277.87s CPU    599.74s WALL ( 7464789 calls)
     fft_scatt_yz :   3183.00s CPU    723.87s WALL ( 7464789 calls)
 
     PWSCF        :     2h50m CPU        2h52m WALL

 
   This run was terminated on:  22: 4: 6   9Apr2018            

=------------------------------------------------------------------------------=
   JOB DONE.
=------------------------------------------------------------------------------=
