
     Program PWSCF v.6.2.2 starts on  8Apr2018 at 17:50:53 

     This program is part of the open-source Quantum ESPRESSO suite
     for quantum simulation of materials; please cite
         "P. Giannozzi et al., J. Phys.:Condens. Matter 21 395502 (2009);
         "P. Giannozzi et al., J. Phys.:Condens. Matter 29 465901 (2017);
          URL http://www.quantum-espresso.org", 
     in publications or presentations arising from this work. More details at
     http://www.quantum-espresso.org/quote

     Parallel version (MPI), running on     2 processors

     MPI processes distributed on     1 nodes
     R & G space division:  proc/nbgrp/npool/nimage =       2
     Reading input from Conv_acell-ecut.in

     Current dimensions of program PWSCF are:
     Max number of different atomic species (ntypx) = 10
     Max number of k-points (npk) =  40000
     Max angular momentum in pseudopotentials (lmaxx) =  3

     Subspace diagonalization in iterative solution of the eigenvalue problem:
     a serial algorithm will be used

 
     Parallelization info
     --------------------
     sticks:   dense  smooth     PW     G-vecs:    dense   smooth      PW
     Min         332     332    110                 4313     4313     791
     Max         333     333    111                 4314     4314     792
     Sum         665     665    221                 8627     8627    1583
 


     bravais-lattice index     =            6
     lattice parameter (alat)  =       9.1100  a.u.
     unit-cell volume          =     506.5589 (a.u.)^3
     number of atoms/cell      =            6
     number of atomic types    =            2
     number of electrons       =        52.00
     number of Kohn-Sham states=           26
     kinetic-energy cutoff     =      25.0000  Ry
     charge density cutoff     =     100.0000  Ry
     convergence threshold     =      1.0E-12
     mixing beta               =       0.7000
     number of iterations used =            8  plain     mixing
     Exchange-correlation      = PBE ( 1  4  3  4 0 0)
     nstep                     =           50


     celldm(1)=   9.110000  celldm(2)=   0.000000  celldm(3)=   0.670000
     celldm(4)=   0.000000  celldm(5)=   0.000000  celldm(6)=   0.000000

     crystal axes: (cart. coord. in units of alat)
               a(1) = (   1.000000   0.000000   0.000000 )  
               a(2) = (   0.000000   1.000000   0.000000 )  
               a(3) = (   0.000000   0.000000   0.670000 )  

     reciprocal axes: (cart. coord. in units 2 pi/alat)
               b(1) = (  1.000000  0.000000  0.000000 )  
               b(2) = (  0.000000  1.000000  0.000000 )  
               b(3) = (  0.000000  0.000000  1.492537 )  


     PseudoPot. # 1 for Sn read from file:
     ../../Pseudo_potentials/Sn_PBE.upf
     MD5 check sum: 78e6386ae56e929f0568ae8bf606a80c
     Pseudo is Norm-conserving + core correction, Zval = 14.0
     Generated using ONCVPSP code by D. R. Hamann
     Using radial grid of 1628 points,  6 beta functions with: 
                l(1) =   0
                l(2) =   0
                l(3) =   1
                l(4) =   1
                l(5) =   2
                l(6) =   2

     PseudoPot. # 2 for O  read from file:
     ../../Pseudo_potentials/O_PBE.upf
     MD5 check sum: 3e3f909f7470e8921608ab6b1f57bbae
     Pseudo is Norm-conserving + core correction, Zval =  6.0
     Generated using ONCVPSP code by D. R. Hamann
     Using radial grid of  936 points,  5 beta functions with: 
                l(1) =   0
                l(2) =   0
                l(3) =   1
                l(4) =   1
                l(5) =   2

     atomic species   valence    mass     pseudopotential
        Sn            14.00   118.71000     Sn( 1.00)
        O              6.00    15.99900     O ( 1.00)

      4 Sym. Ops. (no inversion) found



   Cartesian axes

     site n.     atom                  positions (alat units)
         1           Sn  tau(   1) = (   0.0000000   0.0000000   0.0000000  )
         2           Sn  tau(   2) = (   0.5000000   0.5000000   0.3350000  )
         3           O   tau(   3) = (   0.8060000   0.1930000   0.3350000  )
         4           O   tau(   4) = (   0.1930000   0.8060000   0.3350000  )
         5           O   tau(   5) = (   0.3060000   0.3060000   0.0000000  )
         6           O   tau(   6) = (   0.6930000   0.6930000   0.0000000  )

     number of k points=   301

     Number of k-points >= 100: set verbosity='high' to print them.

     Dense  grid:     8627 G-vectors     FFT dimensions: (  30,  30,  20)

     Estimated max dynamical RAM per process >      74.12 MB

     Estimated total dynamical RAM >     148.24 MB

     Check: negative/imaginary core charge=   -0.002394    0.000000

     Initial potential from superposition of free atoms
     Check: negative starting charge=   -0.009566

     starting charge   51.99690, renormalised to   52.00000

     negative rho (up, down):  9.566E-03 0.000E+00
     Starting wfc are   34 randomized atomic wfcs

     total cpu time spent up to now is        9.2 secs

     Self-consistent Calculation

     iteration #  1     ecut=    25.00 Ry     beta= 0.70
     Davidson diagonalization with overlap
     ethr =  1.00E-02,  avg # of iterations =  2.0

     negative rho (up, down):  2.854E-03 0.000E+00

     total cpu time spent up to now is       33.7 secs

     total energy              =    -429.62689828 Ry
     Harris-Foulkes estimate   =    -432.65702069 Ry
     estimated scf accuracy    <       4.17149218 Ry

     iteration #  2     ecut=    25.00 Ry     beta= 0.70
     Davidson diagonalization with overlap
     ethr =  8.02E-03,  avg # of iterations =  2.0

     negative rho (up, down):  8.835E-04 0.000E+00

     total cpu time spent up to now is       57.2 secs

     total energy              =    -430.40192414 Ry
     Harris-Foulkes estimate   =    -430.54313058 Ry
     estimated scf accuracy    <       0.25007710 Ry

     iteration #  3     ecut=    25.00 Ry     beta= 0.70
     Davidson diagonalization with overlap
     ethr =  4.81E-04,  avg # of iterations =  2.8

     negative rho (up, down):  1.605E-04 0.000E+00

     total cpu time spent up to now is       81.7 secs

     total energy              =    -430.44805120 Ry
     Harris-Foulkes estimate   =    -430.46196238 Ry
     estimated scf accuracy    <       0.02981340 Ry

     iteration #  4     ecut=    25.00 Ry     beta= 0.70
     Davidson diagonalization with overlap
     ethr =  5.73E-05,  avg # of iterations =  2.9

     total cpu time spent up to now is      106.5 secs

     total energy              =    -430.45348942 Ry
     Harris-Foulkes estimate   =    -430.45530499 Ry
     estimated scf accuracy    <       0.00355385 Ry

     iteration #  5     ecut=    25.00 Ry     beta= 0.70
     Davidson diagonalization with overlap
     ethr =  6.83E-06,  avg # of iterations =  3.0

     total cpu time spent up to now is      131.7 secs

     total energy              =    -430.45432236 Ry
     Harris-Foulkes estimate   =    -430.45440678 Ry
     estimated scf accuracy    <       0.00017355 Ry

     iteration #  6     ecut=    25.00 Ry     beta= 0.70
     Davidson diagonalization with overlap
     ethr =  3.34E-07,  avg # of iterations =  3.0

     total cpu time spent up to now is      156.8 secs

     total energy              =    -430.45436619 Ry
     Harris-Foulkes estimate   =    -430.45437081 Ry
     estimated scf accuracy    <       0.00001004 Ry

     iteration #  7     ecut=    25.00 Ry     beta= 0.70
     Davidson diagonalization with overlap
     ethr =  1.93E-08,  avg # of iterations =  3.1

     total cpu time spent up to now is      181.8 secs

     total energy              =    -430.45436754 Ry
     Harris-Foulkes estimate   =    -430.45436830 Ry
     estimated scf accuracy    <       0.00000191 Ry

     iteration #  8     ecut=    25.00 Ry     beta= 0.70
     Davidson diagonalization with overlap
     ethr =  3.66E-09,  avg # of iterations =  3.0

     total cpu time spent up to now is      205.2 secs

     total energy              =    -430.45436785 Ry
     Harris-Foulkes estimate   =    -430.45436787 Ry
     estimated scf accuracy    <       0.00000005 Ry

     iteration #  9     ecut=    25.00 Ry     beta= 0.70
     Davidson diagonalization with overlap
     ethr =  9.14E-11,  avg # of iterations =  3.3

     total cpu time spent up to now is      235.3 secs

     total energy              =    -430.45436786 Ry
     Harris-Foulkes estimate   =    -430.45436787 Ry
     estimated scf accuracy    <       0.00000001 Ry

     iteration # 10     ecut=    25.00 Ry     beta= 0.70
     Davidson diagonalization with overlap
     ethr =  2.48E-11,  avg # of iterations =  3.0

     total cpu time spent up to now is      258.7 secs

     total energy              =    -430.45436786 Ry
     Harris-Foulkes estimate   =    -430.45436787 Ry
     estimated scf accuracy    <          3.0E-09 Ry

     iteration # 11     ecut=    25.00 Ry     beta= 0.70
     Davidson diagonalization with overlap
     ethr =  5.81E-12,  avg # of iterations =  3.1

     total cpu time spent up to now is      283.7 secs

     total energy              =    -430.45436786 Ry
     Harris-Foulkes estimate   =    -430.45436786 Ry
     estimated scf accuracy    <          1.3E-10 Ry

     iteration # 12     ecut=    25.00 Ry     beta= 0.70
     Davidson diagonalization with overlap
     ethr =  2.50E-13,  avg # of iterations =  3.0

     total cpu time spent up to now is      308.9 secs

     End of self-consistent calculation

     Number of k-points >= 100: set verbosity='high' to print the bands.

     highest occupied level (ev):     9.8298

!    total energy              =    -430.45436786 Ry
     Harris-Foulkes estimate   =    -430.45436786 Ry
     estimated scf accuracy    <          7.8E-13 Ry

     The total energy is the sum of the following terms:

     one-electron contribution =     -96.64733462 Ry
     hartree contribution      =      85.51100512 Ry
     xc contribution           =    -116.83670002 Ry
     ewald contribution        =    -302.48133834 Ry

     convergence has been achieved in  12 iterations

     Forces acting on atoms (cartesian axes, Ry/au):

     atom    1 type  1   force =     0.00043724    0.00043724    0.00000000
     atom    2 type  1   force =    -0.00004442   -0.00004442    0.00000000
     atom    3 type  2   force =     0.01419830   -0.01371003    0.00000000
     atom    4 type  2   force =    -0.01371003    0.01419830    0.00000000
     atom    5 type  2   force =     0.01352866    0.01352866    0.00000000
     atom    6 type  2   force =    -0.01440976   -0.01440976    0.00000000

     Total force =     0.039507     Total SCF correction =     0.000004


     Computing stress (Cartesian axis) and pressure

          total   stress  (Ry/bohr**3)                   (kbar)     P=-9551.63
  -0.06529358   0.00000027   0.00000000      -9605.02      0.04      0.00
   0.00000027  -0.06529358   0.00000000          0.04  -9605.02      0.00
   0.00000000   0.00000000  -0.06420476          0.00      0.00  -9444.85


     BFGS Geometry Optimization

     number of scf cycles    =   1
     number of bfgs steps    =   0

     enthalpy new            =    -430.4543678645 Ry

     new trust radius        =       0.5000000000 bohr
     new conv_thr            =            1.0E-12 Ry

     new unit-cell volume =    356.55460 a.u.^3 (    52.83594 Ang^3 )
     density =      9.47296 g/cm^3

CELL_PARAMETERS (alat=  9.11000000)
   0.888922769   0.000000000   0.000000000
   0.000000000   0.888922769   0.000000000
   0.000000000   0.000000000   0.596819297

ATOMIC_POSITIONS (crystal)
Sn       0.000003266   0.000003266   0.000000000
Sn       0.499999668   0.499999668   0.500000000
O        0.806106055   0.192897592   0.500000000
O        0.192897592   0.806106055   0.500000000
O        0.306101053   0.306101053   0.000000000
O        0.692892365   0.692892365   0.000000000



     Writing output data file SnO2.save
     Check: negative starting charge=   -0.009566
     NEW-OLD atomic charge density approx. for the potential

     Check: negative/imaginary core charge=   -0.001408    0.000000
     Check: negative starting charge=   -0.001845

     negative rho (up, down):  1.259E+00 0.000E+00
     extrapolated charge   30.12465, renormalised to   52.00000

     total cpu time spent up to now is      318.7 secs

     Self-consistent Calculation

     iteration #  1     ecut=    25.00 Ry     beta= 0.70
     Davidson diagonalization with overlap
     ethr =  1.00E-06,  avg # of iterations = 12.3

     total cpu time spent up to now is      395.9 secs

     total energy              =    -402.06089774 Ry
     Harris-Foulkes estimate   =    -475.64362724 Ry
     estimated scf accuracy    <      58.30077080 Ry

     iteration #  2     ecut=    25.00 Ry     beta= 0.70
     Davidson diagonalization with overlap
     ethr =  1.00E-02,  avg # of iterations =  5.4

     total cpu time spent up to now is      435.3 secs

     total energy              =    -436.52004403 Ry
     Harris-Foulkes estimate   =    -447.72953891 Ry
     estimated scf accuracy    <      17.35467065 Ry

     iteration #  3     ecut=    25.00 Ry     beta= 0.70
     Davidson diagonalization with overlap
     ethr =  1.00E-02,  avg # of iterations =  2.6

     total cpu time spent up to now is      461.9 secs

     total energy              =    -439.52526099 Ry
     Harris-Foulkes estimate   =    -439.89671305 Ry
     estimated scf accuracy    <       0.69751220 Ry

     iteration #  4     ecut=    25.00 Ry     beta= 0.70
     Davidson diagonalization with overlap
     ethr =  1.34E-03,  avg # of iterations =  2.0

     total cpu time spent up to now is      481.1 secs

     total energy              =    -439.46896319 Ry
     Harris-Foulkes estimate   =    -439.57260104 Ry
     estimated scf accuracy    <       0.16622343 Ry

     iteration #  5     ecut=    25.00 Ry     beta= 0.70
     Davidson diagonalization with overlap
     ethr =  3.20E-04,  avg # of iterations =  2.0

     negative rho (up, down):  8.872E-05 0.000E+00

     total cpu time spent up to now is      502.8 secs

     total energy              =    -439.46780866 Ry
     Harris-Foulkes estimate   =    -439.48650542 Ry
     estimated scf accuracy    <       0.02506109 Ry

     iteration #  6     ecut=    25.00 Ry     beta= 0.70
     Davidson diagonalization with overlap
     ethr =  4.82E-05,  avg # of iterations =  2.0

     negative rho (up, down):  3.816E-04 0.000E+00

     total cpu time spent up to now is      527.5 secs

     total energy              =    -439.47200805 Ry
     Harris-Foulkes estimate   =    -439.47283224 Ry
     estimated scf accuracy    <       0.00155577 Ry

     iteration #  7     ecut=    25.00 Ry     beta= 0.70
     Davidson diagonalization with overlap
     ethr =  2.99E-06,  avg # of iterations =  2.1

     negative rho (up, down):  5.716E-05 0.000E+00

     total cpu time spent up to now is      551.6 secs

     total energy              =    -439.47422349 Ry
     Harris-Foulkes estimate   =    -439.47427396 Ry
     estimated scf accuracy    <       0.00008514 Ry

     iteration #  8     ecut=    25.00 Ry     beta= 0.70
     Davidson diagonalization with overlap
     ethr =  1.64E-07,  avg # of iterations =  2.0

     total cpu time spent up to now is      575.2 secs

     total energy              =    -439.47423218 Ry
     Harris-Foulkes estimate   =    -439.47423658 Ry
     estimated scf accuracy    <       0.00000743 Ry

     iteration #  9     ecut=    25.00 Ry     beta= 0.70
     Davidson diagonalization with overlap
     ethr =  1.43E-08,  avg # of iterations =  2.6

     total cpu time spent up to now is      600.9 secs

     total energy              =    -439.47423325 Ry
     Harris-Foulkes estimate   =    -439.47423358 Ry
     estimated scf accuracy    <       0.00000059 Ry

     iteration # 10     ecut=    25.00 Ry     beta= 0.70
     Davidson diagonalization with overlap
     ethr =  1.14E-09,  avg # of iterations =  2.7

     total cpu time spent up to now is      624.3 secs

     total energy              =    -439.47423336 Ry
     Harris-Foulkes estimate   =    -439.47423338 Ry
     estimated scf accuracy    <       0.00000005 Ry

     iteration # 11     ecut=    25.00 Ry     beta= 0.70
     Davidson diagonalization with overlap
     ethr =  9.08E-11,  avg # of iterations =  2.2

     total cpu time spent up to now is      650.1 secs

     total energy              =    -439.47423336 Ry
     Harris-Foulkes estimate   =    -439.47423336 Ry
     estimated scf accuracy    <          9.2E-10 Ry

     iteration # 12     ecut=    25.00 Ry     beta= 0.70
     Davidson diagonalization with overlap
     ethr =  1.76E-12,  avg # of iterations =  2.9

     total cpu time spent up to now is      676.1 secs

     total energy              =    -439.47423336 Ry
     Harris-Foulkes estimate   =    -439.47423336 Ry
     estimated scf accuracy    <          3.7E-11 Ry

     iteration # 13     ecut=    25.00 Ry     beta= 0.70
     Davidson diagonalization with overlap
     ethr =  1.00E-13,  avg # of iterations =  2.0

     total cpu time spent up to now is      698.6 secs

     total energy              =    -439.47423336 Ry
     Harris-Foulkes estimate   =    -439.47423336 Ry
     estimated scf accuracy    <          2.6E-12 Ry

     iteration # 14     ecut=    25.00 Ry     beta= 0.70
     Davidson diagonalization with overlap
     ethr =  1.00E-13,  avg # of iterations =  1.0

     total cpu time spent up to now is      716.6 secs

     End of self-consistent calculation

     Number of k-points >= 100: set verbosity='high' to print the bands.

     highest occupied level (ev):    16.0264

!    total energy              =    -439.47423336 Ry
     Harris-Foulkes estimate   =    -439.47423336 Ry
     estimated scf accuracy    <          2.1E-13 Ry

     The total energy is the sum of the following terms:

     one-electron contribution =     -56.68287968 Ry
     hartree contribution      =      78.93200439 Ry
     xc contribution           =    -121.61952958 Ry
     ewald contribution        =    -340.10382849 Ry

     convergence has been achieved in  14 iterations

     Forces acting on atoms (cartesian axes, Ry/au):

     atom    1 type  1   force =    -0.00332072   -0.00332072    0.00000000
     atom    2 type  1   force =    -0.00270221   -0.00270221    0.00000000
     atom    3 type  2   force =    -0.04998756    0.04916508    0.00000000
     atom    4 type  2   force =     0.04916508   -0.04998756   -0.00000000
     atom    5 type  2   force =    -0.04614989   -0.04614989    0.00000000
     atom    6 type  2   force =     0.05299530    0.05299530    0.00000000

     Total force =     0.140518     Total SCF correction =     0.000002


     Computing stress (Cartesian axis) and pressure

          total   stress  (Ry/bohr**3)                   (kbar)     P=-7232.69
  -0.05023994   0.00000034   0.00000000      -7390.55      0.05      0.00
   0.00000034  -0.05023994   0.00000000          0.05  -7390.55      0.00
   0.00000000   0.00000000  -0.04702053          0.00      0.00  -6916.96


     number of scf cycles    =   2
     number of bfgs steps    =   1

     enthalpy old            =    -430.4543678645 Ry
     enthalpy new            =    -439.4742333647 Ry

     CASE: enthalpy_new < enthalpy_old

     new trust radius        =       0.7078566073 bohr
     new conv_thr            =            1.0E-12 Ry

     new unit-cell volume =    217.75999 a.u.^3 (    32.26870 Ang^3 )
     density =     15.51079 g/cm^3

CELL_PARAMETERS (alat=  9.11000000)
   0.722306921   0.000000000   0.000000000
   0.000000000   0.722306921   0.000000000
   0.000000000   0.000000000   0.552051251

ATOMIC_POSITIONS (crystal)
Sn      -0.000690137  -0.000690137   0.000000000
Sn       0.499483841   0.499483841   0.500000000
O        0.794746542   0.204039386   0.500000000
O        0.204039386   0.794746542   0.500000000
O        0.295562773   0.295562773   0.000000000
O        0.704857595   0.704857595   0.000000000



     Writing output data file SnO2.save
     Check: negative starting charge=   -0.001845
     NEW-OLD atomic charge density approx. for the potential

     Check: negative/imaginary core charge=   -0.000516    0.000000

     negative rho (up, down):  2.441E+00 0.000E+00
     extrapolated charge   18.85851, renormalised to   52.00000

     total cpu time spent up to now is      726.0 secs

     Self-consistent Calculation

     iteration #  1     ecut=    25.00 Ry     beta= 0.70
     Davidson diagonalization with overlap
     ethr =  1.00E-06,  avg # of iterations = 10.8

     total cpu time spent up to now is      804.3 secs

     total energy              =    -392.74858191 Ry
     Harris-Foulkes estimate   =    -483.33258737 Ry
     estimated scf accuracy    <     130.17689191 Ry

     iteration #  2     ecut=    25.00 Ry     beta= 0.70
     Davidson diagonalization with overlap
     ethr =  1.00E-02,  avg # of iterations =  5.0

     total cpu time spent up to now is      843.9 secs

     total energy              =    -437.81402008 Ry
     Harris-Foulkes estimate   =    -448.33533313 Ry
     estimated scf accuracy    <      15.26519901 Ry

     iteration #  3     ecut=    25.00 Ry     beta= 0.70
     Davidson diagonalization with overlap
     ethr =  1.00E-02,  avg # of iterations =  2.9

     total cpu time spent up to now is      871.7 secs

     total energy              =    -441.20189958 Ry
     Harris-Foulkes estimate   =    -441.36721608 Ry
     estimated scf accuracy    <       0.31745659 Ry

     iteration #  4     ecut=    25.00 Ry     beta= 0.70
     Davidson diagonalization with overlap
     ethr =  6.10E-04,  avg # of iterations =  2.0

     total cpu time spent up to now is      893.5 secs

     total energy              =    -441.21509299 Ry
     Harris-Foulkes estimate   =    -441.23578203 Ry
     estimated scf accuracy    <       0.03620288 Ry

     iteration #  5     ecut=    25.00 Ry     beta= 0.70
     Davidson diagonalization with overlap
     ethr =  6.96E-05,  avg # of iterations =  2.0

     total cpu time spent up to now is      913.2 secs

     total energy              =    -441.21709679 Ry
     Harris-Foulkes estimate   =    -441.21791221 Ry
     estimated scf accuracy    <       0.00154471 Ry

     iteration #  6     ecut=    25.00 Ry     beta= 0.70
     Davidson diagonalization with overlap
     ethr =  2.97E-06,  avg # of iterations =  2.0

     total cpu time spent up to now is      936.5 secs

     total energy              =    -441.21729773 Ry
     Harris-Foulkes estimate   =    -441.21733273 Ry
     estimated scf accuracy    <       0.00006270 Ry

     iteration #  7     ecut=    25.00 Ry     beta= 0.70
     Davidson diagonalization with overlap
     ethr =  1.21E-07,  avg # of iterations =  3.0

     total cpu time spent up to now is      962.5 secs

     total energy              =    -441.21731305 Ry
     Harris-Foulkes estimate   =    -441.21731495 Ry
     estimated scf accuracy    <       0.00000438 Ry

     iteration #  8     ecut=    25.00 Ry     beta= 0.70
     Davidson diagonalization with overlap
     ethr =  8.42E-09,  avg # of iterations =  2.8

     total cpu time spent up to now is      985.9 secs

     total energy              =    -441.21731368 Ry
     Harris-Foulkes estimate   =    -441.21731383 Ry
     estimated scf accuracy    <       0.00000025 Ry

     iteration #  9     ecut=    25.00 Ry     beta= 0.70
     Davidson diagonalization with overlap
     ethr =  4.87E-10,  avg # of iterations =  2.0

     total cpu time spent up to now is     1009.7 secs

     total energy              =    -441.21731373 Ry
     Harris-Foulkes estimate   =    -441.21731374 Ry
     estimated scf accuracy    <          8.0E-09 Ry

     iteration # 10     ecut=    25.00 Ry     beta= 0.70
     Davidson diagonalization with overlap
     ethr =  1.54E-11,  avg # of iterations =  2.6

     total cpu time spent up to now is     1035.5 secs

     total energy              =    -441.21731373 Ry
     Harris-Foulkes estimate   =    -441.21731373 Ry
     estimated scf accuracy    <          6.6E-10 Ry

     iteration # 11     ecut=    25.00 Ry     beta= 0.70
     Davidson diagonalization with overlap
     ethr =  1.27E-12,  avg # of iterations =  2.1

     total cpu time spent up to now is     1059.7 secs

     total energy              =    -441.21731373 Ry
     Harris-Foulkes estimate   =    -441.21731373 Ry
     estimated scf accuracy    <          3.4E-11 Ry

     iteration # 12     ecut=    25.00 Ry     beta= 0.70
     Davidson diagonalization with overlap
     ethr =  1.00E-13,  avg # of iterations =  2.0

     total cpu time spent up to now is     1082.8 secs

     total energy              =    -441.21731373 Ry
     Harris-Foulkes estimate   =    -441.21731373 Ry
     estimated scf accuracy    <          4.2E-12 Ry

     iteration # 13     ecut=    25.00 Ry     beta= 0.70
     Davidson diagonalization with overlap
     ethr =  1.00E-13,  avg # of iterations =  1.0

     total cpu time spent up to now is     1100.5 secs

     End of self-consistent calculation

     Number of k-points >= 100: set verbosity='high' to print the bands.

     highest occupied level (ev):    31.4388

!    total energy              =    -441.21731373 Ry
     Harris-Foulkes estimate   =    -441.21731373 Ry
     estimated scf accuracy    <          8.3E-14 Ry

     The total energy is the sum of the following terms:

     one-electron contribution =      29.74860735 Ry
     hartree contribution      =      61.38069871 Ry
     xc contribution           =    -127.49903066 Ry
     ewald contribution        =    -404.84758913 Ry

     convergence has been achieved in  13 iterations

     Forces acting on atoms (cartesian axes, Ry/au):

     atom    1 type  1   force =     0.05525209    0.05525209    0.00000000
     atom    2 type  1   force =     0.00841144    0.00841144    0.00000000
     atom    3 type  2   force =     0.65196876   -0.64786338    0.00000000
     atom    4 type  2   force =    -0.64786338    0.65196876    0.00000000
     atom    5 type  2   force =     0.61636272    0.61636272    0.00000000
     atom    6 type  2   force =    -0.68413163   -0.68413163    0.00000000

     Total force =     1.841658     Total SCF correction =     0.000001


     Computing stress (Cartesian axis) and pressure

          total   stress  (Ry/bohr**3)                   (kbar)     P= 6153.17
   0.05457528   0.00000381   0.00000000       8028.30      0.56      0.00
   0.00000381   0.05457528   0.00000000          0.56   8028.30      0.00
   0.00000000   0.00000000   0.01633469          0.00      0.00   2402.92


     number of scf cycles    =   3
     number of bfgs steps    =   2

     enthalpy old            =    -439.4742333647 Ry
     enthalpy new            =    -441.2173137333 Ry

     CASE: enthalpy_new < enthalpy_old

     new trust radius        =       0.7003197509 bohr
     new conv_thr            =            1.0E-12 Ry

     new unit-cell volume =    231.89540 a.u.^3 (    34.36335 Ang^3 )
     density =     14.56531 g/cm^3

CELL_PARAMETERS (alat=  9.11000000)
   0.853490622   0.000000000   0.000000000
   0.000000000   0.853490622   0.000000000
   0.000000000   0.000000000   0.421055641

ATOMIC_POSITIONS (crystal)
Sn       0.001749742   0.001749742   0.000000000
Sn       0.499825630   0.499825630   0.500000000
O        0.823518084   0.175447789   0.500000000
O        0.175447789   0.823518084   0.500000000
O        0.322778625   0.322778625   0.000000000
O        0.674680129   0.674680129   0.000000000



     Writing output data file SnO2.save
     NEW-OLD atomic charge density approx. for the potential

     Check: negative/imaginary core charge=   -0.000777    0.000000
     extrapolated charge   55.16952, renormalised to   52.00000

     total cpu time spent up to now is     1110.1 secs

     Self-consistent Calculation

     iteration #  1     ecut=    25.00 Ry     beta= 0.70
     Davidson diagonalization with overlap
     ethr =  1.00E-06,  avg # of iterations =  8.4

     total cpu time spent up to now is     1176.7 secs

     total energy              =    -437.41705182 Ry
     Harris-Foulkes estimate   =    -432.98413424 Ry
     estimated scf accuracy    <       0.46208318 Ry

     iteration #  2     ecut=    25.00 Ry     beta= 0.70
     Davidson diagonalization with overlap
     ethr =  8.89E-04,  avg # of iterations =  2.8

     total cpu time spent up to now is     1203.6 secs

     total energy              =    -437.66374064 Ry
     Harris-Foulkes estimate   =    -437.79029506 Ry
     estimated scf accuracy    <       0.23036238 Ry

     iteration #  3     ecut=    25.00 Ry     beta= 0.70
     Davidson diagonalization with overlap
     ethr =  4.43E-04,  avg # of iterations =  2.0

     total cpu time spent up to now is     1226.2 secs

     total energy              =    -437.68599066 Ry
     Harris-Foulkes estimate   =    -437.69175639 Ry
     estimated scf accuracy    <       0.01252082 Ry

     iteration #  4     ecut=    25.00 Ry     beta= 0.70
     Davidson diagonalization with overlap
     ethr =  2.41E-05,  avg # of iterations =  2.1

     total cpu time spent up to now is     1250.5 secs

     total energy              =    -437.68812703 Ry
     Harris-Foulkes estimate   =    -437.68812745 Ry
     estimated scf accuracy    <       0.00021679 Ry

     iteration #  5     ecut=    25.00 Ry     beta= 0.70
     Davidson diagonalization with overlap
     ethr =  4.17E-07,  avg # of iterations =  2.3

     total cpu time spent up to now is     1274.5 secs

     total energy              =    -437.68815659 Ry
     Harris-Foulkes estimate   =    -437.68817989 Ry
     estimated scf accuracy    <       0.00004008 Ry

     iteration #  6     ecut=    25.00 Ry     beta= 0.70
     Davidson diagonalization with overlap
     ethr =  7.71E-08,  avg # of iterations =  2.0

     total cpu time spent up to now is     1298.2 secs

     total energy              =    -437.68816367 Ry
     Harris-Foulkes estimate   =    -437.68816424 Ry
     estimated scf accuracy    <       0.00000099 Ry

     iteration #  7     ecut=    25.00 Ry     beta= 0.70
     Davidson diagonalization with overlap
     ethr =  1.91E-09,  avg # of iterations =  2.2

     total cpu time spent up to now is     1323.7 secs

     total energy              =    -437.68816395 Ry
     Harris-Foulkes estimate   =    -437.68816397 Ry
     estimated scf accuracy    <       0.00000005 Ry

     iteration #  8     ecut=    25.00 Ry     beta= 0.70
     Davidson diagonalization with overlap
     ethr =  9.40E-11,  avg # of iterations =  2.2

     total cpu time spent up to now is     1348.7 secs

     total energy              =    -437.68816396 Ry
     Harris-Foulkes estimate   =    -437.68816397 Ry
     estimated scf accuracy    <       0.00000001 Ry

     iteration #  9     ecut=    25.00 Ry     beta= 0.70
     Davidson diagonalization with overlap
     ethr =  1.94E-11,  avg # of iterations =  2.1

     total cpu time spent up to now is     1372.6 secs

     total energy              =    -437.68816396 Ry
     Harris-Foulkes estimate   =    -437.68816396 Ry
     estimated scf accuracy    <          1.0E-09 Ry

     iteration # 10     ecut=    25.00 Ry     beta= 0.70
     Davidson diagonalization with overlap
     ethr =  1.93E-12,  avg # of iterations =  2.0

     total cpu time spent up to now is     1396.5 secs

     total energy              =    -437.68816396 Ry
     Harris-Foulkes estimate   =    -437.68816396 Ry
     estimated scf accuracy    <          4.1E-11 Ry

     iteration # 11     ecut=    25.00 Ry     beta= 0.70
     Davidson diagonalization with overlap
     ethr =  1.00E-13,  avg # of iterations =  2.0

     total cpu time spent up to now is     1420.9 secs

     End of self-consistent calculation

     Number of k-points >= 100: set verbosity='high' to print the bands.

     highest occupied level (ev):    30.2310

!    total energy              =    -437.68816396 Ry
     Harris-Foulkes estimate   =    -437.68816396 Ry
     estimated scf accuracy    <          8.9E-13 Ry

     The total energy is the sum of the following terms:

     one-electron contribution =     -35.23947293 Ry
     hartree contribution      =      88.69109073 Ry
     xc contribution           =    -127.70057042 Ry
     ewald contribution        =    -363.43921134 Ry

     convergence has been achieved in  11 iterations

     Forces acting on atoms (cartesian axes, Ry/au):

     atom    1 type  1   force =     0.02831958    0.02831958    0.00000000
     atom    2 type  1   force =    -0.06572681   -0.06572681    0.00000000
     atom    3 type  2   force =    -1.82462440    1.77234571    0.00000000
     atom    4 type  2   force =     1.77234571   -1.82462440    0.00000000
     atom    5 type  2   force =    -1.75472755   -1.75472755    0.00000000
     atom    6 type  2   force =     1.84441346    1.84441346    0.00000000

     Total force =     5.090484     Total SCF correction =     0.000003


     Computing stress (Cartesian axis) and pressure

          total   stress  (Ry/bohr**3)                   (kbar)     P= 5894.62
  -0.00002038   0.00002592   0.00000000         -3.00      3.81      0.00
   0.00002592  -0.00002038   0.00000000          3.81     -3.00      0.00
   0.00000000   0.00000000   0.12025327          0.00      0.00  17689.86


     number of scf cycles    =   4
     number of bfgs steps    =   3

     enthalpy old            =    -441.2173137333 Ry
     enthalpy new            =    -437.6881639639 Ry

     CASE: enthalpy_new > enthalpy_old

     new trust radius        =       0.2644219946 bohr
     new conv_thr            =            1.0E-12 Ry

     new unit-cell volume =    224.47429 a.u.^3 (    33.26366 Ang^3 )
     density =     15.04684 g/cm^3

CELL_PARAMETERS (alat=  9.11000000)
   0.758915608   0.000000000   0.000000000
   0.000000000   0.758915608   0.000000000
   0.000000000   0.000000000   0.515495054

ATOMIC_POSITIONS (crystal)
Sn      -0.000009254  -0.000009254   0.000000000
Sn       0.499579222   0.499579222   0.500000000
O        0.802775652   0.196060492   0.500000000
O        0.196060492   0.802775652   0.500000000
O        0.303157746   0.303157746   0.000000000
O        0.696436142   0.696436142   0.000000000



     Writing output data file SnO2.save
     NEW-OLD atomic charge density approx. for the potential

     Check: negative/imaginary core charge=   -0.000501    0.000000
     extrapolated charge   50.28098, renormalised to   52.00000

     total cpu time spent up to now is     1430.3 secs

     Self-consistent Calculation

     iteration #  1     ecut=    25.00 Ry     beta= 0.70
     Davidson diagonalization with overlap
     ethr =  1.00E-06,  avg # of iterations =  7.0

     total cpu time spent up to now is     1492.8 secs

     total energy              =    -441.69622538 Ry
     Harris-Foulkes estimate   =    -443.04286408 Ry
     estimated scf accuracy    <       0.24021360 Ry

     iteration #  2     ecut=    25.00 Ry     beta= 0.70
     Davidson diagonalization with overlap
     ethr =  4.62E-04,  avg # of iterations =  2.1

     total cpu time spent up to now is     1518.6 secs

     total energy              =    -441.81414851 Ry
     Harris-Foulkes estimate   =    -441.83937988 Ry
     estimated scf accuracy    <       0.04860209 Ry

     iteration #  3     ecut=    25.00 Ry     beta= 0.70
     Davidson diagonalization with overlap
     ethr =  9.35E-05,  avg # of iterations =  2.0

     total cpu time spent up to now is     1541.5 secs

     total energy              =    -441.81947483 Ry
     Harris-Foulkes estimate   =    -441.82004039 Ry
     estimated scf accuracy    <       0.00217740 Ry

     iteration #  4     ecut=    25.00 Ry     beta= 0.70
     Davidson diagonalization with overlap
     ethr =  4.19E-06,  avg # of iterations =  2.0

     total cpu time spent up to now is     1566.5 secs

     total energy              =    -441.81986666 Ry
     Harris-Foulkes estimate   =    -441.81987317 Ry
     estimated scf accuracy    <       0.00006228 Ry

     iteration #  5     ecut=    25.00 Ry     beta= 0.70
     Davidson diagonalization with overlap
     ethr =  1.20E-07,  avg # of iterations =  2.6

     total cpu time spent up to now is     1592.7 secs

     total energy              =    -441.81987574 Ry
     Harris-Foulkes estimate   =    -441.81988737 Ry
     estimated scf accuracy    <       0.00002263 Ry

     iteration #  6     ecut=    25.00 Ry     beta= 0.70
     Davidson diagonalization with overlap
     ethr =  4.35E-08,  avg # of iterations =  2.0

     total cpu time spent up to now is     1616.4 secs

     total energy              =    -441.81988046 Ry
     Harris-Foulkes estimate   =    -441.81988065 Ry
     estimated scf accuracy    <       0.00000049 Ry

     iteration #  7     ecut=    25.00 Ry     beta= 0.70
     Davidson diagonalization with overlap
     ethr =  9.50E-10,  avg # of iterations =  2.0

     total cpu time spent up to now is     1641.6 secs

     total energy              =    -441.81988059 Ry
     Harris-Foulkes estimate   =    -441.81988061 Ry
     estimated scf accuracy    <       0.00000003 Ry

     iteration #  8     ecut=    25.00 Ry     beta= 0.70
     Davidson diagonalization with overlap
     ethr =  5.50E-11,  avg # of iterations =  2.0

     total cpu time spent up to now is     1667.2 secs

     total energy              =    -441.81988060 Ry
     Harris-Foulkes estimate   =    -441.81988060 Ry
     estimated scf accuracy    <          2.6E-09 Ry

     iteration #  9     ecut=    25.00 Ry     beta= 0.70
     Davidson diagonalization with overlap
     ethr =  4.98E-12,  avg # of iterations =  2.2

     total cpu time spent up to now is     1689.5 secs

     total energy              =    -441.81988060 Ry
     Harris-Foulkes estimate   =    -441.81988060 Ry
     estimated scf accuracy    <          4.1E-10 Ry

     iteration # 10     ecut=    25.00 Ry     beta= 0.70
     Davidson diagonalization with overlap
     ethr =  7.90E-13,  avg # of iterations =  2.0

     total cpu time spent up to now is     1712.8 secs

     total energy              =    -441.81988060 Ry
     Harris-Foulkes estimate   =    -441.81988060 Ry
     estimated scf accuracy    <          9.6E-12 Ry

     iteration # 11     ecut=    25.00 Ry     beta= 0.70
     Davidson diagonalization with overlap
     ethr =  1.00E-13,  avg # of iterations =  1.5

     total cpu time spent up to now is     1730.9 secs

     End of self-consistent calculation

     Number of k-points >= 100: set verbosity='high' to print the bands.

     highest occupied level (ev):    29.6848

!    total energy              =    -441.81988060 Ry
     Harris-Foulkes estimate   =    -441.81988060 Ry
     estimated scf accuracy    <          3.1E-13 Ry

     The total energy is the sum of the following terms:

     one-electron contribution =      17.72396011 Ry
     hartree contribution      =      65.46518432 Ry
     xc contribution           =    -127.32341781 Ry
     ewald contribution        =    -397.68560723 Ry

     convergence has been achieved in  11 iterations

     Forces acting on atoms (cartesian axes, Ry/au):

     atom    1 type  1   force =    -0.00397547   -0.00397547    0.00000000
     atom    2 type  1   force =     0.00614506    0.00614506    0.00000000
     atom    3 type  2   force =    -0.08669413    0.08387784    0.00000000
     atom    4 type  2   force =     0.08387784   -0.08669413    0.00000000
     atom    5 type  2   force =    -0.08508682   -0.08508682    0.00000000
     atom    6 type  2   force =     0.08573353    0.08573353    0.00000000

     Total force =     0.241640     Total SCF correction =     0.000001


     Computing stress (Cartesian axis) and pressure

          total   stress  (Ry/bohr**3)                   (kbar)     P= 5222.29
   0.03206456  -0.00000039   0.00000000       4716.86     -0.06      0.00
  -0.00000039   0.03206456   0.00000000         -0.06   4716.86      0.00
   0.00000000   0.00000000   0.04237216          0.00      0.00   6233.16


     number of scf cycles    =   5
     number of bfgs steps    =   3

     enthalpy old            =    -441.2173137333 Ry
     enthalpy new            =    -441.8198805992 Ry

     CASE: enthalpy_new < enthalpy_old

     new trust radius        =       0.4908109773 bohr
     new conv_thr            =            1.0E-12 Ry

     new unit-cell volume =    308.36466 a.u.^3 (    45.69493 Ang^3 )
     density =     10.95336 g/cm^3

CELL_PARAMETERS (alat=  9.11000000)
   0.824525735   0.000000000   0.000000000
   0.000000000   0.824525735   0.000000000
   0.000000000   0.000000000   0.599930632

ATOMIC_POSITIONS (crystal)
Sn       0.000312900   0.000312900   0.000000000
Sn       0.500329752   0.500329752   0.500000000
O        0.804800346   0.193930070   0.500000000
O        0.193930070   0.804800346   0.500000000
O        0.304744830   0.304744830   0.000000000
O        0.693882102   0.693882102   0.000000000



     Writing output data file SnO2.save
     NEW-OLD atomic charge density approx. for the potential

     Check: negative/imaginary core charge=   -0.001118    0.000000
     Check: negative starting charge=   -0.000707

     negative rho (up, down):  9.569E-04 0.000E+00
     extrapolated charge   66.14572, renormalised to   52.00000

     total cpu time spent up to now is     1740.3 secs

     Self-consistent Calculation

     iteration #  1     ecut=    25.00 Ry     beta= 0.70
     Davidson diagonalization with overlap
     c_bands:  1 eigenvalues not converged
     c_bands:  1 eigenvalues not converged
     c_bands:  1 eigenvalues not converged
     ethr =  1.00E-06,  avg # of iterations = 13.0

     negative rho (up, down):  2.040E-04 0.000E+00

     total cpu time spent up to now is     1809.4 secs

     total energy              =    -429.74125349 Ry
     Harris-Foulkes estimate   =    -426.46441066 Ry
     estimated scf accuracy    <       6.58480623 Ry

     iteration #  2     ecut=    25.00 Ry     beta= 0.70
     Davidson diagonalization with overlap
     ethr =  1.00E-02,  avg # of iterations =  4.5

     negative rho (up, down):  9.639E-05 0.000E+00

     total cpu time spent up to now is     1847.1 secs

     total energy              =    -441.90540912 Ry
     Harris-Foulkes estimate   =    -445.57687080 Ry
     estimated scf accuracy    <       8.41743437 Ry

     iteration #  3     ecut=    25.00 Ry     beta= 0.70
     Davidson diagonalization with overlap
     ethr =  1.00E-02,  avg # of iterations =  2.0

     negative rho (up, down):  3.923E-05 0.000E+00

     total cpu time spent up to now is     1866.9 secs

     total energy              =    -441.67354434 Ry
     Harris-Foulkes estimate   =    -442.32354183 Ry
     estimated scf accuracy    <       1.95349232 Ry

     iteration #  4     ecut=    25.00 Ry     beta= 0.70
     Davidson diagonalization with overlap
     ethr =  3.76E-03,  avg # of iterations =  1.0

     total cpu time spent up to now is     1884.1 secs

     total energy              =    -441.40070758 Ry
     Harris-Foulkes estimate   =    -441.73039107 Ry
     estimated scf accuracy    <       0.79085857 Ry

     iteration #  5     ecut=    25.00 Ry     beta= 0.70
     Davidson diagonalization with overlap
     ethr =  1.52E-03,  avg # of iterations =  1.5

     total cpu time spent up to now is     1902.1 secs

     total energy              =    -441.32860334 Ry
     Harris-Foulkes estimate   =    -441.44203685 Ry
     estimated scf accuracy    <       0.18066217 Ry

     iteration #  6     ecut=    25.00 Ry     beta= 0.70
     Davidson diagonalization with overlap
     ethr =  3.47E-04,  avg # of iterations =  2.0

     total cpu time spent up to now is     1927.9 secs

     total energy              =    -441.36594837 Ry
     Harris-Foulkes estimate   =    -441.36637510 Ry
     estimated scf accuracy    <       0.00074224 Ry

     iteration #  7     ecut=    25.00 Ry     beta= 0.70
     Davidson diagonalization with overlap
     ethr =  1.43E-06,  avg # of iterations =  2.6

     total cpu time spent up to now is     1954.1 secs

     total energy              =    -441.36628773 Ry
     Harris-Foulkes estimate   =    -441.36635410 Ry
     estimated scf accuracy    <       0.00025157 Ry

     iteration #  8     ecut=    25.00 Ry     beta= 0.70
     Davidson diagonalization with overlap
     ethr =  4.84E-07,  avg # of iterations =  1.1

     total cpu time spent up to now is     1971.8 secs

     total energy              =    -441.36624167 Ry
     Harris-Foulkes estimate   =    -441.36629904 Ry
     estimated scf accuracy    <       0.00011048 Ry

     iteration #  9     ecut=    25.00 Ry     beta= 0.70
     Davidson diagonalization with overlap
     ethr =  2.12E-07,  avg # of iterations =  2.0

     total cpu time spent up to now is     1993.3 secs

     total energy              =    -441.36625046 Ry
     Harris-Foulkes estimate   =    -441.36625334 Ry
     estimated scf accuracy    <       0.00000617 Ry

     iteration # 10     ecut=    25.00 Ry     beta= 0.70
     Davidson diagonalization with overlap
     ethr =  1.19E-08,  avg # of iterations =  2.1

     total cpu time spent up to now is     2016.4 secs

     total energy              =    -441.36625142 Ry
     Harris-Foulkes estimate   =    -441.36625164 Ry
     estimated scf accuracy    <       0.00000042 Ry

     iteration # 11     ecut=    25.00 Ry     beta= 0.70
     Davidson diagonalization with overlap
     ethr =  8.09E-10,  avg # of iterations =  2.0

     total cpu time spent up to now is     2041.5 secs

     total energy              =    -441.36625147 Ry
     Harris-Foulkes estimate   =    -441.36625149 Ry
     estimated scf accuracy    <       0.00000005 Ry

     iteration # 12     ecut=    25.00 Ry     beta= 0.70
     Davidson diagonalization with overlap
     ethr =  8.95E-11,  avg # of iterations =  2.0

     total cpu time spent up to now is     2063.9 secs

     total energy              =    -441.36625148 Ry
     Harris-Foulkes estimate   =    -441.36625148 Ry
     estimated scf accuracy    <          3.5E-09 Ry

     iteration # 13     ecut=    25.00 Ry     beta= 0.70
     Davidson diagonalization with overlap
     ethr =  6.74E-12,  avg # of iterations =  2.0

     total cpu time spent up to now is     2086.0 secs

     total energy              =    -441.36625148 Ry
     Harris-Foulkes estimate   =    -441.36625148 Ry
     estimated scf accuracy    <          3.3E-10 Ry

     iteration # 14     ecut=    25.00 Ry     beta= 0.70
     Davidson diagonalization with overlap
     ethr =  6.44E-13,  avg # of iterations =  2.0

     total cpu time spent up to now is     2109.2 secs

     total energy              =    -441.36625148 Ry
     Harris-Foulkes estimate   =    -441.36625148 Ry
     estimated scf accuracy    <          3.4E-11 Ry

     iteration # 15     ecut=    25.00 Ry     beta= 0.70
     Davidson diagonalization with overlap
     ethr =  1.00E-13,  avg # of iterations =  2.0

     total cpu time spent up to now is     2130.8 secs

     total energy              =    -441.36625148 Ry
     Harris-Foulkes estimate   =    -441.36625148 Ry
     estimated scf accuracy    <          1.0E-12 Ry

     iteration # 16     ecut=    25.00 Ry     beta= 0.70
     Davidson diagonalization with overlap
     ethr =  1.00E-13,  avg # of iterations =  1.0

     total cpu time spent up to now is     2148.5 secs

     End of self-consistent calculation

     Number of k-points >= 100: set verbosity='high' to print the bands.

     highest occupied level (ev):    19.7523

!    total energy              =    -441.36625148 Ry
     Harris-Foulkes estimate   =    -441.36625148 Ry
     estimated scf accuracy    <          8.5E-14 Ry

     The total energy is the sum of the following terms:

     one-electron contribution =     -31.25645845 Ry
     hartree contribution      =      72.96068555 Ry
     xc contribution           =    -123.33612622 Ry
     ewald contribution        =    -359.73435236 Ry

     convergence has been achieved in  16 iterations

     Forces acting on atoms (cartesian axes, Ry/au):

     atom    1 type  1   force =    -0.01650056   -0.01650056    0.00000000
     atom    2 type  1   force =    -0.00370485   -0.00370485    0.00000000
     atom    3 type  2   force =     0.04758355   -0.05206094    0.00000000
     atom    4 type  2   force =    -0.05206094    0.04758355    0.00000000
     atom    5 type  2   force =     0.06238242    0.06238242    0.00000000
     atom    6 type  2   force =    -0.03769963   -0.03769963    0.00000000

     Total force =     0.145419     Total SCF correction =     0.000000


     Computing stress (Cartesian axis) and pressure

          total   stress  (Ry/bohr**3)                   (kbar)     P=-4876.12
  -0.02700660   0.00000279   0.00000000      -3972.81      0.41      0.00
   0.00000279  -0.02700660   0.00000000          0.41  -3972.81      0.00
   0.00000000  -0.00000000  -0.04542836          0.00     -0.00  -6682.74


     number of scf cycles    =   6
     number of bfgs steps    =   4

     enthalpy old            =    -441.8198805992 Ry
     enthalpy new            =    -441.3662514760 Ry

     CASE: enthalpy_new > enthalpy_old

     new trust radius        =       0.2126123050 bohr
     new conv_thr            =            1.0E-12 Ry

     new unit-cell volume =    258.49234 a.u.^3 (    38.30461 Ang^3 )
     density =     13.06665 g/cm^3

CELL_PARAMETERS (alat=  9.11000000)
   0.787136617   0.000000000   0.000000000
   0.000000000   0.787136617   0.000000000
   0.000000000   0.000000000   0.551813490

ATOMIC_POSITIONS (crystal)
Sn       0.000129315   0.000129315   0.000000000
Sn       0.499902049   0.499902049   0.500000000
O        0.803646537   0.195144129   0.500000000
O        0.195144129   0.803646537   0.500000000
O        0.303840402   0.303840402   0.000000000
O        0.695337568   0.695337568   0.000000000



     Writing output data file SnO2.save
     Check: negative starting charge=   -0.000707
     NEW-OLD atomic charge density approx. for the potential

     Check: negative/imaginary core charge=   -0.000749    0.000000
     extrapolated charge   41.96796, renormalised to   52.00000

     total cpu time spent up to now is     2157.7 secs

     Self-consistent Calculation

     iteration #  1     ecut=    25.00 Ry     beta= 0.70
     Davidson diagonalization with overlap
     ethr =  1.00E-06,  avg # of iterations =  6.0

     total cpu time spent up to now is     2209.2 secs

     total energy              =    -439.62723209 Ry
     Harris-Foulkes estimate   =    -450.76828947 Ry
     estimated scf accuracy    <       2.59760297 Ry

     iteration #  2     ecut=    25.00 Ry     beta= 0.70
     Davidson diagonalization with overlap
     ethr =  5.00E-03,  avg # of iterations =  3.0

     total cpu time spent up to now is     2237.4 secs

     total energy              =    -442.29381985 Ry
     Harris-Foulkes estimate   =    -443.03445515 Ry
     estimated scf accuracy    <       1.61024569 Ry

     iteration #  3     ecut=    25.00 Ry     beta= 0.70
     Davidson diagonalization with overlap
     ethr =  3.10E-03,  avg # of iterations =  2.0

     total cpu time spent up to now is     2258.7 secs

     total energy              =    -442.36336217 Ry
     Harris-Foulkes estimate   =    -442.44015074 Ry
     estimated scf accuracy    <       0.15776832 Ry

     iteration #  4     ecut=    25.00 Ry     beta= 0.70
     Davidson diagonalization with overlap
     ethr =  3.03E-04,  avg # of iterations =  2.0

     total cpu time spent up to now is     2280.1 secs

     total energy              =    -442.37208742 Ry
     Harris-Foulkes estimate   =    -442.38122481 Ry
     estimated scf accuracy    <       0.01436669 Ry

     iteration #  5     ecut=    25.00 Ry     beta= 0.70
     Davidson diagonalization with overlap
     ethr =  2.76E-05,  avg # of iterations =  2.3

     total cpu time spent up to now is     2306.5 secs

     total energy              =    -442.37639601 Ry
     Harris-Foulkes estimate   =    -442.37724541 Ry
     estimated scf accuracy    <       0.00162425 Ry

     iteration #  6     ecut=    25.00 Ry     beta= 0.70
     Davidson diagonalization with overlap
     ethr =  3.12E-06,  avg # of iterations =  2.0

     total cpu time spent up to now is     2328.6 secs

     total energy              =    -442.37658994 Ry
     Harris-Foulkes estimate   =    -442.37661794 Ry
     estimated scf accuracy    <       0.00005674 Ry

     iteration #  7     ecut=    25.00 Ry     beta= 0.70
     Davidson diagonalization with overlap
     ethr =  1.09E-07,  avg # of iterations =  2.0

     total cpu time spent up to now is     2352.7 secs

     total energy              =    -442.37659688 Ry
     Harris-Foulkes estimate   =    -442.37659842 Ry
     estimated scf accuracy    <       0.00000364 Ry

     iteration #  8     ecut=    25.00 Ry     beta= 0.70
     Davidson diagonalization with overlap
     ethr =  7.01E-09,  avg # of iterations =  2.0

     total cpu time spent up to now is     2374.3 secs

     total energy              =    -442.37659699 Ry
     Harris-Foulkes estimate   =    -442.37659726 Ry
     estimated scf accuracy    <       0.00000047 Ry

     iteration #  9     ecut=    25.00 Ry     beta= 0.70
     Davidson diagonalization with overlap
     ethr =  9.06E-10,  avg # of iterations =  2.0

     total cpu time spent up to now is     2398.7 secs

     total energy              =    -442.37659708 Ry
     Harris-Foulkes estimate   =    -442.37659708 Ry
     estimated scf accuracy    <          1.8E-09 Ry

     iteration # 10     ecut=    25.00 Ry     beta= 0.70
     Davidson diagonalization with overlap
     ethr =  3.41E-12,  avg # of iterations =  3.0

     total cpu time spent up to now is     2426.5 secs

     total energy              =    -442.37659708 Ry
     Harris-Foulkes estimate   =    -442.37659708 Ry
     estimated scf accuracy    <          2.2E-10 Ry

     iteration # 11     ecut=    25.00 Ry     beta= 0.70
     Davidson diagonalization with overlap
     ethr =  4.30E-13,  avg # of iterations =  2.0

     total cpu time spent up to now is     2450.7 secs

     total energy              =    -442.37659708 Ry
     Harris-Foulkes estimate   =    -442.37659708 Ry
     estimated scf accuracy    <          2.9E-12 Ry

     iteration # 12     ecut=    25.00 Ry     beta= 0.70
     Davidson diagonalization with overlap
     ethr =  1.00E-13,  avg # of iterations =  1.0

     total cpu time spent up to now is     2468.1 secs

     End of self-consistent calculation

     Number of k-points >= 100: set verbosity='high' to print the bands.

     highest occupied level (ev):    24.7872

!    total energy              =    -442.37659708 Ry
     Harris-Foulkes estimate   =    -442.37659708 Ry
     estimated scf accuracy    <          3.1E-13 Ry

     The total energy is the sum of the following terms:

     one-electron contribution =      -5.36916237 Ry
     hartree contribution      =      68.97493466 Ry
     xc contribution           =    -125.57507995 Ry
     ewald contribution        =    -380.40728942 Ry

     convergence has been achieved in  12 iterations

     Forces acting on atoms (cartesian axes, Ry/au):

     atom    1 type  1   force =    -0.01216783   -0.01216783    0.00000000
     atom    2 type  1   force =    -0.00127982   -0.00127982    0.00000000
     atom    3 type  2   force =     0.00158425   -0.00568784    0.00000000
     atom    4 type  2   force =    -0.00568784    0.00158425    0.00000000
     atom    5 type  2   force =     0.01246022    0.01246022    0.00000000
     atom    6 type  2   force =     0.00509102    0.00509102    0.00000000

     Total force =     0.027046     Total SCF correction =     0.000001


     Computing stress (Cartesian axis) and pressure

          total   stress  (Ry/bohr**3)                   (kbar)     P= -138.23
   0.00038736   0.00000109   0.00000000         56.98      0.16      0.00
   0.00000109   0.00038736   0.00000000          0.16     56.98      0.00
   0.00000000   0.00000000  -0.00359376          0.00      0.00   -528.66


     number of scf cycles    =   7
     number of bfgs steps    =   4

     enthalpy old            =    -441.8198805992 Ry
     enthalpy new            =    -442.3765970845 Ry

     CASE: enthalpy_new < enthalpy_old

     new trust radius        =       0.0496233886 bohr
     new conv_thr            =            1.0E-12 Ry

     new unit-cell volume =    258.11417 a.u.^3 (    38.24857 Ang^3 )
     density =     13.08580 g/cm^3

CELL_PARAMETERS (alat=  9.11000000)
   0.792701037   0.000000000   0.000000000
   0.000000000   0.792701037   0.000000000
   0.000000000   0.000000000   0.543297701

ATOMIC_POSITIONS (crystal)
Sn      -0.001117552  -0.001117552   0.000000000
Sn       0.499805159   0.499805159   0.500000000
O        0.800649591   0.197765691   0.500000000
O        0.197765691   0.800649591   0.500000000
O        0.301892603   0.301892603   0.000000000
O        0.699004508   0.699004508   0.000000000



     Writing output data file SnO2.save
     NEW-OLD atomic charge density approx. for the potential

     Check: negative/imaginary core charge=   -0.000740    0.000000
     extrapolated charge   51.92382, renormalised to   52.00000

     total cpu time spent up to now is     2477.4 secs

     Self-consistent Calculation

     iteration #  1     ecut=    25.00 Ry     beta= 0.70
     Davidson diagonalization with overlap
     ethr =  1.00E-06,  avg # of iterations =  5.0

     total cpu time spent up to now is     2519.5 secs

     total energy              =    -442.38137449 Ry
     Harris-Foulkes estimate   =    -442.44863411 Ry
     estimated scf accuracy    <       0.00155383 Ry

     iteration #  2     ecut=    25.00 Ry     beta= 0.70
     Davidson diagonalization with overlap
     ethr =  2.99E-06,  avg # of iterations =  2.0

     total cpu time spent up to now is     2544.6 secs

     total energy              =    -442.38175341 Ry
     Harris-Foulkes estimate   =    -442.38182190 Ry
     estimated scf accuracy    <       0.00017543 Ry

     iteration #  3     ecut=    25.00 Ry     beta= 0.70
     Davidson diagonalization with overlap
     ethr =  3.37E-07,  avg # of iterations =  2.0

     total cpu time spent up to now is     2568.2 secs

     total energy              =    -442.38178401 Ry
     Harris-Foulkes estimate   =    -442.38178347 Ry
     estimated scf accuracy    <       0.00000964 Ry

     iteration #  4     ecut=    25.00 Ry     beta= 0.70
     Davidson diagonalization with overlap
     ethr =  1.85E-08,  avg # of iterations =  2.0

     total cpu time spent up to now is     2592.5 secs

     total energy              =    -442.38178566 Ry
     Harris-Foulkes estimate   =    -442.38178636 Ry
     estimated scf accuracy    <       0.00000156 Ry

     iteration #  5     ecut=    25.00 Ry     beta= 0.70
     Davidson diagonalization with overlap
     ethr =  3.01E-09,  avg # of iterations =  2.3

     total cpu time spent up to now is     2617.2 secs

     total energy              =    -442.38178605 Ry
     Harris-Foulkes estimate   =    -442.38178615 Ry
     estimated scf accuracy    <       0.00000022 Ry

     iteration #  6     ecut=    25.00 Ry     beta= 0.70
     Davidson diagonalization with overlap
     ethr =  4.17E-10,  avg # of iterations =  2.1

     total cpu time spent up to now is     2641.0 secs

     total energy              =    -442.38178610 Ry
     Harris-Foulkes estimate   =    -442.38178611 Ry
     estimated scf accuracy    <       0.00000001 Ry

     iteration #  7     ecut=    25.00 Ry     beta= 0.70
     Davidson diagonalization with overlap
     ethr =  2.33E-11,  avg # of iterations =  2.0

     total cpu time spent up to now is     2664.5 secs

     total energy              =    -442.38178611 Ry
     Harris-Foulkes estimate   =    -442.38178611 Ry
     estimated scf accuracy    <          1.2E-10 Ry

     iteration #  8     ecut=    25.00 Ry     beta= 0.70
     Davidson diagonalization with overlap
     ethr =  2.29E-13,  avg # of iterations =  2.5

     total cpu time spent up to now is     2690.1 secs

     total energy              =    -442.38178611 Ry
     Harris-Foulkes estimate   =    -442.38178611 Ry
     estimated scf accuracy    <          9.5E-12 Ry

     iteration #  9     ecut=    25.00 Ry     beta= 0.70
     Davidson diagonalization with overlap
     ethr =  1.00E-13,  avg # of iterations =  1.8

     total cpu time spent up to now is     2708.3 secs

     End of self-consistent calculation

     Number of k-points >= 100: set verbosity='high' to print the bands.

     highest occupied level (ev):    24.7280

!    total energy              =    -442.38178611 Ry
     Harris-Foulkes estimate   =    -442.38178611 Ry
     estimated scf accuracy    <          9.4E-13 Ry

     The total energy is the sum of the following terms:

     one-electron contribution =      -6.04296891 Ry
     hartree contribution      =      69.34138971 Ry
     xc contribution           =    -125.62087532 Ry
     ewald contribution        =    -380.05933160 Ry

     convergence has been achieved in   9 iterations

     Forces acting on atoms (cartesian axes, Ry/au):

     atom    1 type  1   force =     0.04469086    0.04469086    0.00000000
     atom    2 type  1   force =     0.00842346    0.00842346    0.00000000
     atom    3 type  2   force =     0.01125004   -0.00597485    0.00000000
     atom    4 type  2   force =    -0.00597485    0.01125004    0.00000000
     atom    5 type  2   force =    -0.02010571   -0.02010571    0.00000000
     atom    6 type  2   force =    -0.03828381   -0.03828381    0.00000000

     Total force =     0.090558     Total SCF correction =     0.000003


     Computing stress (Cartesian axis) and pressure

          total   stress  (Ry/bohr**3)                   (kbar)     P=  -26.24
  -0.00037398   0.00000671   0.00000000        -55.02      0.99      0.00
   0.00000671  -0.00037398   0.00000000          0.99    -55.02      0.00
   0.00000000  -0.00000000   0.00021292          0.00     -0.00     31.32


     number of scf cycles    =   8
     number of bfgs steps    =   5

     enthalpy old            =    -442.3765970845 Ry
     enthalpy new            =    -442.3817861072 Ry

     CASE: enthalpy_new < enthalpy_old

     new trust radius        =       0.0279947181 bohr
     new conv_thr            =            1.0E-12 Ry

     new unit-cell volume =    257.73831 a.u.^3 (    38.19288 Ang^3 )
     density =     13.10488 g/cm^3

CELL_PARAMETERS (alat=  9.11000000)
   0.791948583   0.000000000   0.000000000
   0.000000000   0.791948583   0.000000000
   0.000000000   0.000000000   0.543537956

ATOMIC_POSITIONS (crystal)
Sn       0.001623601   0.001623601   0.000000000
Sn       0.500339092   0.500339092   0.500000000
O        0.801149251   0.197554188   0.500000000
O        0.197554188   0.801149251   0.500000000
O        0.300498107   0.300498107   0.000000000
O        0.696835761   0.696835761   0.000000000



     Writing output data file SnO2.save
     NEW-OLD atomic charge density approx. for the potential

     Check: negative/imaginary core charge=   -0.000737    0.000000
     extrapolated charge   51.92417, renormalised to   52.00000

     total cpu time spent up to now is     2717.6 secs

     Self-consistent Calculation

     iteration #  1     ecut=    25.00 Ry     beta= 0.70
     Davidson diagonalization with overlap
     ethr =  1.00E-06,  avg # of iterations =  4.2

     total cpu time spent up to now is     2758.3 secs

     total energy              =    -442.38051706 Ry
     Harris-Foulkes estimate   =    -442.44691106 Ry
     estimated scf accuracy    <       0.00064578 Ry

     iteration #  2     ecut=    25.00 Ry     beta= 0.70
     Davidson diagonalization with overlap
     ethr =  1.24E-06,  avg # of iterations =  2.0

     total cpu time spent up to now is     2783.2 secs

     total energy              =    -442.38075180 Ry
     Harris-Foulkes estimate   =    -442.38082376 Ry
     estimated scf accuracy    <       0.00015246 Ry

     iteration #  3     ecut=    25.00 Ry     beta= 0.70
     Davidson diagonalization with overlap
     ethr =  2.93E-07,  avg # of iterations =  2.0

     total cpu time spent up to now is     2805.8 secs

     total energy              =    -442.38077507 Ry
     Harris-Foulkes estimate   =    -442.38077617 Ry
     estimated scf accuracy    <       0.00000853 Ry

     iteration #  4     ecut=    25.00 Ry     beta= 0.70
     Davidson diagonalization with overlap
     ethr =  1.64E-08,  avg # of iterations =  2.0

     total cpu time spent up to now is     2830.9 secs

     total energy              =    -442.38077665 Ry
     Harris-Foulkes estimate   =    -442.38077790 Ry
     estimated scf accuracy    <       0.00000238 Ry

     iteration #  5     ecut=    25.00 Ry     beta= 0.70
     Davidson diagonalization with overlap
     ethr =  4.57E-09,  avg # of iterations =  2.2

     total cpu time spent up to now is     2855.0 secs

     total energy              =    -442.38077724 Ry
     Harris-Foulkes estimate   =    -442.38077731 Ry
     estimated scf accuracy    <       0.00000017 Ry

     iteration #  6     ecut=    25.00 Ry     beta= 0.70
     Davidson diagonalization with overlap
     ethr =  3.20E-10,  avg # of iterations =  2.0

     total cpu time spent up to now is     2878.7 secs

     total energy              =    -442.38077728 Ry
     Harris-Foulkes estimate   =    -442.38077728 Ry
     estimated scf accuracy    <          9.9E-09 Ry

     iteration #  7     ecut=    25.00 Ry     beta= 0.70
     Davidson diagonalization with overlap
     ethr =  1.90E-11,  avg # of iterations =  2.0

     total cpu time spent up to now is     2903.7 secs

     total energy              =    -442.38077728 Ry
     Harris-Foulkes estimate   =    -442.38077728 Ry
     estimated scf accuracy    <          2.2E-10 Ry

     iteration #  8     ecut=    25.00 Ry     beta= 0.70
     Davidson diagonalization with overlap
     ethr =  4.29E-13,  avg # of iterations =  2.8

     total cpu time spent up to now is     2928.9 secs

     total energy              =    -442.38077728 Ry
     Harris-Foulkes estimate   =    -442.38077728 Ry
     estimated scf accuracy    <          3.4E-11 Ry

     iteration #  9     ecut=    25.00 Ry     beta= 0.70
     Davidson diagonalization with overlap
     ethr =  1.00E-13,  avg # of iterations =  2.6

     total cpu time spent up to now is     2951.2 secs

     total energy              =    -442.38077728 Ry
     Harris-Foulkes estimate   =    -442.38077728 Ry
     estimated scf accuracy    <          2.8E-12 Ry

     iteration # 10     ecut=    25.00 Ry     beta= 0.70
     Davidson diagonalization with overlap
     ethr =  1.00E-13,  avg # of iterations =  1.0

     total cpu time spent up to now is     2968.6 secs

     End of self-consistent calculation

     Number of k-points >= 100: set verbosity='high' to print the bands.

     highest occupied level (ev):    24.7838

!    total energy              =    -442.38077728 Ry
     Harris-Foulkes estimate   =    -442.38077728 Ry
     estimated scf accuracy    <          1.0E-13 Ry

     The total energy is the sum of the following terms:

     one-electron contribution =      -5.78194078 Ry
     hartree contribution      =      69.29403619 Ry
     xc contribution           =    -125.63793794 Ry
     ewald contribution        =    -380.25493475 Ry

     convergence has been achieved in  10 iterations

     Forces acting on atoms (cartesian axes, Ry/au):

     atom    1 type  1   force =    -0.07568286   -0.07568286    0.00000000
     atom    2 type  1   force =    -0.01487931   -0.01487931    0.00000000
     atom    3 type  2   force =    -0.00431457   -0.01297269    0.00000000
     atom    4 type  2   force =    -0.01297269   -0.00431457    0.00000000
     atom    5 type  2   force =     0.05900102    0.05900102    0.00000000
     atom    6 type  2   force =     0.04884842    0.04884842    0.00000000

     Total force =     0.154942     Total SCF correction =     0.000001


     Computing stress (Cartesian axis) and pressure

          total   stress  (Ry/bohr**3)                   (kbar)     P=   19.25
  -0.00003889   0.00002160   0.00000000         -5.72      3.18      0.00
   0.00002160  -0.00003889   0.00000000          3.18     -5.72      0.00
   0.00000000   0.00000000   0.00047044          0.00      0.00     69.20


     number of scf cycles    =   9
     number of bfgs steps    =   6

     enthalpy old            =    -442.3817861072 Ry
     enthalpy new            =    -442.3807772794 Ry

     CASE: enthalpy_new > enthalpy_old

     new trust radius        =       0.0110167156 bohr
     new conv_thr            =            1.0E-12 Ry

     new unit-cell volume =    257.96612 a.u.^3 (    38.22663 Ang^3 )
     density =     13.09331 g/cm^3

CELL_PARAMETERS (alat=  9.11000000)
   0.792404644   0.000000000   0.000000000
   0.000000000   0.792404644   0.000000000
   0.000000000   0.000000000   0.543392338

ATOMIC_POSITIONS (crystal)
Sn      -0.000037805  -0.000037805   0.000000000
Sn       0.500015477   0.500015477   0.500000000
O        0.800846408   0.197682379   0.500000000
O        0.197682379   0.800846408   0.500000000
O        0.301343308   0.301343308   0.000000000
O        0.698150233   0.698150233   0.000000000



     Writing output data file SnO2.save
     NEW-OLD atomic charge density approx. for the potential

     Check: negative/imaginary core charge=   -0.000739    0.000000
     extrapolated charge   52.04592, renormalised to   52.00000

     total cpu time spent up to now is     2978.0 secs

     Self-consistent Calculation

     iteration #  1     ecut=    25.00 Ry     beta= 0.70
     Davidson diagonalization with overlap
     ethr =  1.00E-06,  avg # of iterations =  4.0

     total cpu time spent up to now is     3015.9 secs

     total energy              =    -442.38242392 Ry
     Harris-Foulkes estimate   =    -442.34247243 Ry
     estimated scf accuracy    <       0.00024051 Ry

     iteration #  2     ecut=    25.00 Ry     beta= 0.70
     Davidson diagonalization with overlap
     ethr =  4.63E-07,  avg # of iterations =  2.0

     total cpu time spent up to now is     3041.5 secs

     total energy              =    -442.38251195 Ry
     Harris-Foulkes estimate   =    -442.38253901 Ry
     estimated scf accuracy    <       0.00005697 Ry

     iteration #  3     ecut=    25.00 Ry     beta= 0.70
     Davidson diagonalization with overlap
     ethr =  1.10E-07,  avg # of iterations =  2.0

     total cpu time spent up to now is     3063.7 secs

     total energy              =    -442.38252059 Ry
     Harris-Foulkes estimate   =    -442.38252114 Ry
     estimated scf accuracy    <       0.00000333 Ry

     iteration #  4     ecut=    25.00 Ry     beta= 0.70
     Davidson diagonalization with overlap
     ethr =  6.41E-09,  avg # of iterations =  2.1

     total cpu time spent up to now is     3088.7 secs

     total energy              =    -442.38252123 Ry
     Harris-Foulkes estimate   =    -442.38252175 Ry
     estimated scf accuracy    <       0.00000099 Ry

     iteration #  5     ecut=    25.00 Ry     beta= 0.70
     Davidson diagonalization with overlap
     ethr =  1.89E-09,  avg # of iterations =  2.2

     total cpu time spent up to now is     3113.4 secs

     total energy              =    -442.38252148 Ry
     Harris-Foulkes estimate   =    -442.38252150 Ry
     estimated scf accuracy    <       0.00000006 Ry

     iteration #  6     ecut=    25.00 Ry     beta= 0.70
     Davidson diagonalization with overlap
     ethr =  1.13E-10,  avg # of iterations =  2.0

     total cpu time spent up to now is     3137.1 secs

     total energy              =    -442.38252149 Ry
     Harris-Foulkes estimate   =    -442.38252149 Ry
     estimated scf accuracy    <          3.6E-09 Ry

     iteration #  7     ecut=    25.00 Ry     beta= 0.70
     Davidson diagonalization with overlap
     ethr =  6.91E-12,  avg # of iterations =  2.0

     total cpu time spent up to now is     3162.4 secs

     total energy              =    -442.38252149 Ry
     Harris-Foulkes estimate   =    -442.38252149 Ry
     estimated scf accuracy    <          9.9E-11 Ry

     iteration #  8     ecut=    25.00 Ry     beta= 0.70
     Davidson diagonalization with overlap
     ethr =  1.90E-13,  avg # of iterations =  2.9

     total cpu time spent up to now is     3186.9 secs

     total energy              =    -442.38252149 Ry
     Harris-Foulkes estimate   =    -442.38252149 Ry
     estimated scf accuracy    <          1.6E-11 Ry

     iteration #  9     ecut=    25.00 Ry     beta= 0.70
     Davidson diagonalization with overlap
     ethr =  1.00E-13,  avg # of iterations =  2.0

     total cpu time spent up to now is     3206.8 secs

     End of self-consistent calculation

     Number of k-points >= 100: set verbosity='high' to print the bands.

     highest occupied level (ev):    24.7502

!    total energy              =    -442.38252149 Ry
     Harris-Foulkes estimate   =    -442.38252149 Ry
     estimated scf accuracy    <          9.2E-13 Ry

     The total energy is the sum of the following terms:

     one-electron contribution =      -5.92990830 Ry
     hartree contribution      =      69.31783276 Ry
     xc contribution           =    -125.62725838 Ry
     ewald contribution        =    -380.14318756 Ry

     convergence has been achieved in   9 iterations

     Forces acting on atoms (cartesian axes, Ry/au):

     atom    1 type  1   force =    -0.00284782   -0.00284782    0.00000000
     atom    2 type  1   force =    -0.00074883   -0.00074883    0.00000000
     atom    3 type  2   force =     0.00509212   -0.00868306    0.00000000
     atom    4 type  2   force =    -0.00868306    0.00509212    0.00000000
     atom    5 type  2   force =     0.01007792    0.01007792    0.00000000
     atom    6 type  2   force =    -0.00289034   -0.00289034    0.00000000

     Total force =     0.020972     Total SCF correction =     0.000002


     Computing stress (Cartesian axis) and pressure

          total   stress  (Ry/bohr**3)                   (kbar)     P=   -9.63
  -0.00025462  -0.00000185   0.00000000        -37.46     -0.27      0.00
  -0.00000185  -0.00025462   0.00000000         -0.27    -37.46      0.00
   0.00000000   0.00000000   0.00031281          0.00      0.00     46.02


     number of scf cycles    =  10
     number of bfgs steps    =   6

     enthalpy old            =    -442.3817861072 Ry
     enthalpy new            =    -442.3825214882 Ry

     CASE: enthalpy_new < enthalpy_old

     new trust radius        =       0.0117538950 bohr
     new conv_thr            =            1.0E-12 Ry

     new unit-cell volume =    257.73932 a.u.^3 (    38.19303 Ang^3 )
     density =     13.10483 g/cm^3

CELL_PARAMETERS (alat=  9.11000000)
   0.790621621   0.000000000   0.000000000
   0.000000000   0.790621621   0.000000000
   0.000000000   0.000000000   0.545366134

ATOMIC_POSITIONS (crystal)
Sn      -0.000043625  -0.000043625   0.000000000
Sn       0.499988631   0.499988631   0.500000000
O        0.801732822   0.196514748   0.500000000
O        0.196514748   0.801732822   0.500000000
O        0.302494642   0.302494642   0.000000000
O        0.697312782   0.697312782   0.000000000



     Writing output data file SnO2.save
     NEW-OLD atomic charge density approx. for the potential

     Check: negative/imaginary core charge=   -0.000739    0.000000
     extrapolated charge   51.95424, renormalised to   52.00000

     total cpu time spent up to now is     3216.3 secs

     Self-consistent Calculation

     iteration #  1     ecut=    25.00 Ry     beta= 0.70
     Davidson diagonalization with overlap
     ethr =  1.00E-06,  avg # of iterations =  4.0

     total cpu time spent up to now is     3252.6 secs

     total energy              =    -442.38272921 Ry
     Harris-Foulkes estimate   =    -442.42259281 Ry
     estimated scf accuracy    <       0.00021226 Ry

     iteration #  2     ecut=    25.00 Ry     beta= 0.70
     Davidson diagonalization with overlap
     ethr =  4.08E-07,  avg # of iterations =  2.0

     total cpu time spent up to now is     3277.4 secs

     total energy              =    -442.38282289 Ry
     Harris-Foulkes estimate   =    -442.38284733 Ry
     estimated scf accuracy    <       0.00004930 Ry

     iteration #  3     ecut=    25.00 Ry     beta= 0.70
     Davidson diagonalization with overlap
     ethr =  9.48E-08,  avg # of iterations =  2.0

     total cpu time spent up to now is     3299.1 secs

     total energy              =    -442.38282890 Ry
     Harris-Foulkes estimate   =    -442.38282929 Ry
     estimated scf accuracy    <       0.00000222 Ry

     iteration #  4     ecut=    25.00 Ry     beta= 0.70
     Davidson diagonalization with overlap
     ethr =  4.27E-09,  avg # of iterations =  2.0

     total cpu time spent up to now is     3324.2 secs

     total energy              =    -442.38282933 Ry
     Harris-Foulkes estimate   =    -442.38282942 Ry
     estimated scf accuracy    <       0.00000018 Ry

     iteration #  5     ecut=    25.00 Ry     beta= 0.70
     Davidson diagonalization with overlap
     ethr =  3.49E-10,  avg # of iterations =  2.0

     total cpu time spent up to now is     3348.7 secs

     total energy              =    -442.38282936 Ry
     Harris-Foulkes estimate   =    -442.38282938 Ry
     estimated scf accuracy    <       0.00000003 Ry

     iteration #  6     ecut=    25.00 Ry     beta= 0.70
     Davidson diagonalization with overlap
     ethr =  5.87E-11,  avg # of iterations =  2.0

     total cpu time spent up to now is     3373.6 secs

     total energy              =    -442.38282937 Ry
     Harris-Foulkes estimate   =    -442.38282937 Ry
     estimated scf accuracy    <          3.3E-09 Ry

     iteration #  7     ecut=    25.00 Ry     beta= 0.70
     Davidson diagonalization with overlap
     ethr =  6.37E-12,  avg # of iterations =  2.0

     total cpu time spent up to now is     3396.3 secs

     total energy              =    -442.38282937 Ry
     Harris-Foulkes estimate   =    -442.38282937 Ry
     estimated scf accuracy    <          5.6E-11 Ry

     iteration #  8     ecut=    25.00 Ry     beta= 0.70
     Davidson diagonalization with overlap
     ethr =  1.07E-13,  avg # of iterations =  2.1

     total cpu time spent up to now is     3421.6 secs

     total energy              =    -442.38282937 Ry
     Harris-Foulkes estimate   =    -442.38282937 Ry
     estimated scf accuracy    <          2.5E-12 Ry

     iteration #  9     ecut=    25.00 Ry     beta= 0.70
     Davidson diagonalization with overlap
     ethr =  1.00E-13,  avg # of iterations =  1.0

     total cpu time spent up to now is     3439.2 secs

     End of self-consistent calculation

     Number of k-points >= 100: set verbosity='high' to print the bands.

     highest occupied level (ev):    24.8094

!    total energy              =    -442.38282937 Ry
     Harris-Foulkes estimate   =    -442.38282937 Ry
     estimated scf accuracy    <          1.4E-13 Ry

     The total energy is the sum of the following terms:

     one-electron contribution =      -5.59383913 Ry
     hartree contribution      =      69.21237003 Ry
     xc contribution           =    -125.63228364 Ry
     ewald contribution        =    -380.36907663 Ry

     convergence has been achieved in   9 iterations

     Forces acting on atoms (cartesian axes, Ry/au):

     atom    1 type  1   force =     0.00228459    0.00228459    0.00000000
     atom    2 type  1   force =     0.00213736    0.00213736    0.00000000
     atom    3 type  2   force =    -0.00283453   -0.00033060    0.00000000
[...]
     atom    6 type  2   force =    -0.00011350   -0.00011350    0.00000000

     Total force =     0.000207     Total SCF correction =     0.000002


     Computing stress (Cartesian axis) and pressure

          total   stress  (Ry/bohr**3)                   (kbar)     P=   -0.66
  -0.00000172   0.00716544   0.00000000         -0.25   1054.07      0.00
   0.00716544  -0.00000172   0.00000000       1054.07     -0.25      0.00
   0.00000000   0.00000000  -0.00001011          0.00      0.00     -1.49


     number of scf cycles    =  40
     number of bfgs steps    =  34

     enthalpy old            =    -442.6672194320 Ry
     enthalpy new            =    -442.6672194064 Ry

     CASE: enthalpy_new > enthalpy_old

     new trust radius        =       0.0000239718 bohr

     trust_radius < trust_radius_min

     resetting bfgs history

     Message from routine bfgs:
     history already reset at previous step: stopping
     new conv_thr            =            1.0E-12 Ry

     new unit-cell volume =    250.41073 a.u.^3 (    37.10704 Ang^3 )
     density =     13.48836 g/cm^3

CELL_PARAMETERS (alat=  9.11000000)
   0.780753477   0.000000000   0.000000000
   0.000000000   0.780753477   0.000000000
   0.000000000   0.000000000   0.543337845

ATOMIC_POSITIONS (crystal)
Sn       0.046610361   0.046610361   0.000000000
Sn       0.555519588   0.555519588   0.500000000
O        0.703285549   0.115727158   0.500000000
O        0.115727158   0.703285549   0.500000000
O        0.344144960   0.344144960   0.000000000
O        0.732712384   0.732712384   0.000000000



     Writing output data file SnO2.save
     NEW-OLD atomic charge density approx. for the potential

     Check: negative/imaginary core charge=   -0.000687    0.000000
     extrapolated charge   52.00097, renormalised to   52.00000

     total cpu time spent up to now is    10846.2 secs

     Self-consistent Calculation

     iteration #  1     ecut=    25.00 Ry     beta= 0.70
     Davidson diagonalization with overlap
     ethr =  1.00E-06,  avg # of iterations =  1.0

     Threshold (ethr) on eigenvalues was too large:
     Diagonalizing with lowered threshold

     Davidson diagonalization with overlap
     ethr =  5.52E-11,  avg # of iterations =  3.0

     total cpu time spent up to now is    10892.9 secs

     total energy              =    -442.66721927 Ry
     Harris-Foulkes estimate   =    -442.66664158 Ry
     estimated scf accuracy    <       0.00000002 Ry

     iteration #  2     ecut=    25.00 Ry     beta= 0.70
     Davidson diagonalization with overlap
     ethr =  4.46E-11,  avg # of iterations =  3.3

     total cpu time spent up to now is    10923.8 secs

     total energy              =    -442.66721930 Ry
     Harris-Foulkes estimate   =    -442.66721932 Ry
     estimated scf accuracy    <       0.00000003 Ry

     iteration #  3     ecut=    25.00 Ry     beta= 0.70
     Davidson diagonalization with overlap
     ethr =  4.46E-11,  avg # of iterations =  2.0

     total cpu time spent up to now is    10944.8 secs

     total energy              =    -442.66721930 Ry
     Harris-Foulkes estimate   =    -442.66721930 Ry
     estimated scf accuracy    <          4.5E-09 Ry

     iteration #  4     ecut=    25.00 Ry     beta= 0.70
     Davidson diagonalization with overlap
     ethr =  8.63E-12,  avg # of iterations =  1.1

     total cpu time spent up to now is    10962.3 secs

     total energy              =    -442.66721930 Ry
     Harris-Foulkes estimate   =    -442.66721930 Ry
     estimated scf accuracy    <          1.9E-09 Ry

     iteration #  5     ecut=    25.00 Ry     beta= 0.70
     Davidson diagonalization with overlap
     ethr =  3.62E-12,  avg # of iterations =  2.3

     total cpu time spent up to now is    10987.3 secs

     total energy              =    -442.66721930 Ry
     Harris-Foulkes estimate   =    -442.66721930 Ry
     estimated scf accuracy    <          1.5E-11 Ry

     iteration #  6     ecut=    25.00 Ry     beta= 0.70
     Davidson diagonalization with overlap
     ethr =  1.00E-13,  avg # of iterations =  2.3

     total cpu time spent up to now is    11010.0 secs

     total energy              =    -442.66721930 Ry
     Harris-Foulkes estimate   =    -442.66721930 Ry
     estimated scf accuracy    <          6.3E-12 Ry

     iteration #  7     ecut=    25.00 Ry     beta= 0.70
     Davidson diagonalization with overlap
     ethr =  1.00E-13,  avg # of iterations =  1.0

     total cpu time spent up to now is    11027.1 secs

     total energy              =    -442.66721930 Ry
     Harris-Foulkes estimate   =    -442.66721930 Ry
     estimated scf accuracy    <          2.2E-12 Ry

     iteration #  8     ecut=    25.00 Ry     beta= 0.70
     Davidson diagonalization with overlap
     ethr =  1.00E-13,  avg # of iterations =  1.0

     total cpu time spent up to now is    11044.1 secs

     End of self-consistent calculation

     Number of k-points >= 100: set verbosity='high' to print the bands.

     highest occupied level (ev):    26.0526

!    total energy              =    -442.66721930 Ry
     Harris-Foulkes estimate   =    -442.66721930 Ry
     estimated scf accuracy    <          2.9E-13 Ry

     The total energy is the sum of the following terms:

     one-electron contribution =      12.84151306 Ry
     hartree contribution      =      61.94310839 Ry
     xc contribution           =    -125.33809414 Ry
     ewald contribution        =    -392.11374661 Ry

     convergence has been achieved in   8 iterations

     Forces acting on atoms (cartesian axes, Ry/au):

     atom    1 type  1   force =     0.00001172    0.00001172    0.00000000
     atom    2 type  1   force =     0.00011060    0.00011060    0.00000000
     atom    3 type  2   force =     0.00006496   -0.00008556    0.00000000
     atom    4 type  2   force =    -0.00008556    0.00006496    0.00000000
     atom    5 type  2   force =     0.00010282    0.00010282    0.00000000
     atom    6 type  2   force =    -0.00020453   -0.00020453    0.00000000

     Total force =     0.000391     Total SCF correction =     0.000002


     Computing stress (Cartesian axis) and pressure

          total   stress  (Ry/bohr**3)                   (kbar)     P=   -1.32
  -0.00000288   0.00716472   0.00000000         -0.42   1053.97      0.00
   0.00716472  -0.00000288   0.00000000       1053.97     -0.42      0.00
   0.00000000   0.00000000  -0.00002110          0.00      0.00     -3.10


     bfgs converged in  41 scf cycles and  34 bfgs steps
     (criteria: energy <  1.0E-10 Ry, force <  1.0E-09Ry/Bohr, cell <  5.0E-01kbar)

     End of BFGS Geometry Optimization

     Final enthalpy =    -442.6672193025 Ry
Begin final coordinates
     new unit-cell volume =    250.41073 a.u.^3 (    37.10704 Ang^3 )
     density =     13.48836 g/cm^3

CELL_PARAMETERS (alat=  9.11000000)
   0.780753477   0.000000000   0.000000000
   0.000000000   0.780753477   0.000000000
   0.000000000   0.000000000   0.543337845

ATOMIC_POSITIONS (crystal)
Sn       0.046610361   0.046610361   0.000000000
Sn       0.555519588   0.555519588   0.500000000
O        0.703285549   0.115727158   0.500000000
O        0.115727158   0.703285549   0.500000000
O        0.344144960   0.344144960   0.000000000
O        0.732712384   0.732712384   0.000000000
End final coordinates



     A final scf calculation at the relaxed structure.
     The G-vectors are recalculated for the final unit cell
     Results may differ from those at the preceding step.
 
     Parallelization info
     --------------------
     sticks:   dense  smooth     PW     G-vecs:    dense   smooth      PW
     Min         202     202     68                 2125     2125     436
     Max         203     203     69                 2126     2126     437
     Sum         405     405    137                 4251     4251     873
 


     bravais-lattice index     =            6
     lattice parameter (alat)  =       9.1100  a.u.
     unit-cell volume          =     250.4107 (a.u.)^3
     number of atoms/cell      =            6
     number of atomic types    =            2
     number of electrons       =        52.00
     number of Kohn-Sham states=           26
     kinetic-energy cutoff     =      25.0000  Ry
     charge density cutoff     =     100.0000  Ry
     convergence threshold     =      1.0E-12
     mixing beta               =       0.7000
     number of iterations used =            8  plain     mixing
     Exchange-correlation      = PBE ( 1  4  3  4 0 0)

     celldm(1)=   9.110000  celldm(2)=   0.000000  celldm(3)=   0.670000
     celldm(4)=   0.000000  celldm(5)=   0.000000  celldm(6)=   0.000000

     crystal axes: (cart. coord. in units of alat)
               a(1) = (   0.780753   0.000000   0.000000 )  
               a(2) = (   0.000000   0.780753   0.000000 )  
               a(3) = (   0.000000   0.000000   0.543338 )  

     reciprocal axes: (cart. coord. in units 2 pi/alat)
               b(1) = (  1.280814  0.000000  0.000000 )  
               b(2) = (  0.000000  1.280814  0.000000 )  
               b(3) = (  0.000000  0.000000  1.840476 )  


     PseudoPot. # 1 for Sn read from file:
     ../../Pseudo_potentials/Sn_PBE.upf
     MD5 check sum: 78e6386ae56e929f0568ae8bf606a80c
     Pseudo is Norm-conserving + core correction, Zval = 14.0
     Generated using ONCVPSP code by D. R. Hamann
     Using radial grid of 1628 points,  6 beta functions with: 
                l(1) =   0
                l(2) =   0
                l(3) =   1
                l(4) =   1
                l(5) =   2
                l(6) =   2

     PseudoPot. # 2 for O  read from file:
     ../../Pseudo_potentials/O_PBE.upf
     MD5 check sum: 3e3f909f7470e8921608ab6b1f57bbae
     Pseudo is Norm-conserving + core correction, Zval =  6.0
     Generated using ONCVPSP code by D. R. Hamann
     Using radial grid of  936 points,  5 beta functions with: 
                l(1) =   0
                l(2) =   0
                l(3) =   1
                l(4) =   1
                l(5) =   2

     atomic species   valence    mass     pseudopotential
        Sn            14.00   118.71000     Sn( 1.00)
        O              6.00    15.99900     O ( 1.00)

      4 Sym. Ops. (no inversion) found



   Cartesian axes

     site n.     atom                  positions (alat units)
         1           Sn  tau(   1) = (   0.0363912   0.0363912   0.0000000  )
         2           Sn  tau(   2) = (   0.4337238   0.4337238   0.2716689  )
         3           O   tau(   3) = (   0.5490926   0.0903544   0.2716689  )
         4           O   tau(   4) = (   0.0903544   0.5490926   0.2716689  )
         5           O   tau(   5) = (   0.2686924   0.2686924   0.0000000  )
         6           O   tau(   6) = (   0.5720677   0.5720677   0.0000000  )

     number of k points=   301

     Number of k-points >= 100: set verbosity='high' to print them.

     Dense  grid:     4251 G-vectors     FFT dimensions: (  24,  24,  15)

     Estimated max dynamical RAM per process >      39.34 MB

     Estimated total dynamical RAM >      78.68 MB

     Check: negative/imaginary core charge=   -0.003336    0.000000

     Initial potential from superposition of free atoms
     Check: negative starting charge=   -0.004683

     starting charge   51.99690, renormalised to   52.00000

     negative rho (up, down):  4.683E-03 0.000E+00
     Starting wfc are   34 randomized atomic wfcs

     Writing output data file SnO2.save

     total cpu time spent up to now is    11057.3 secs

     Self-consistent Calculation

     iteration #  1     ecut=    25.00 Ry     beta= 0.70
     Davidson diagonalization with overlap
     ethr =  1.00E-06,  avg # of iterations =  7.1

     negative rho (up, down):  1.370E-03 0.000E+00

     total cpu time spent up to now is    11087.3 secs

     total energy              =    -426.27614957 Ry
     Harris-Foulkes estimate   =    -429.52694180 Ry
     estimated scf accuracy    <       4.44786750 Ry

     iteration #  2     ecut=    25.00 Ry     beta= 0.70
     Davidson diagonalization with overlap
     ethr =  8.55E-03,  avg # of iterations =  2.0

     negative rho (up, down):  4.427E-04 0.000E+00

     total cpu time spent up to now is    11100.6 secs

     total energy              =    -427.13374385 Ry
     Harris-Foulkes estimate   =    -427.40497410 Ry
     estimated scf accuracy    <       0.42736968 Ry

     iteration #  3     ecut=    25.00 Ry     beta= 0.70
     Davidson diagonalization with overlap
     ethr =  8.22E-04,  avg # of iterations =  2.9

     negative rho (up, down):  5.231E-05 0.000E+00

     total cpu time spent up to now is    11114.1 secs

     total energy              =    -427.23266701 Ry
     Harris-Foulkes estimate   =    -427.26624966 Ry
     estimated scf accuracy    <       0.06709330 Ry

     iteration #  4     ecut=    25.00 Ry     beta= 0.70
     Davidson diagonalization with overlap
     ethr =  1.29E-04,  avg # of iterations =  2.2

     total cpu time spent up to now is    11126.5 secs

     total energy              =    -427.24456991 Ry
     Harris-Foulkes estimate   =    -427.24855035 Ry
     estimated scf accuracy    <       0.00695557 Ry

     iteration #  5     ecut=    25.00 Ry     beta= 0.70
     Davidson diagonalization with overlap
     ethr =  1.34E-05,  avg # of iterations =  2.9

     total cpu time spent up to now is    11140.9 secs

     total energy              =    -427.24634507 Ry
     Harris-Foulkes estimate   =    -427.24723304 Ry
     estimated scf accuracy    <       0.00167183 Ry

     iteration #  6     ecut=    25.00 Ry     beta= 0.70
     Davidson diagonalization with overlap
     ethr =  3.22E-06,  avg # of iterations =  2.4

     total cpu time spent up to now is    11153.7 secs

     total energy              =    -427.24674323 Ry
     Harris-Foulkes estimate   =    -427.24676563 Ry
     estimated scf accuracy    <       0.00004672 Ry

     iteration #  7     ecut=    25.00 Ry     beta= 0.70
     Davidson diagonalization with overlap
     ethr =  8.98E-08,  avg # of iterations =  2.5

     total cpu time spent up to now is    11167.2 secs

     total energy              =    -427.24675642 Ry
     Harris-Foulkes estimate   =    -427.24675756 Ry
     estimated scf accuracy    <       0.00000307 Ry

     iteration #  8     ecut=    25.00 Ry     beta= 0.70
     Davidson diagonalization with overlap
     ethr =  5.90E-09,  avg # of iterations =  2.8

     total cpu time spent up to now is    11180.0 secs

     total energy              =    -427.24675702 Ry
     Harris-Foulkes estimate   =    -427.24675718 Ry
     estimated scf accuracy    <       0.00000030 Ry

     iteration #  9     ecut=    25.00 Ry     beta= 0.70
     Davidson diagonalization with overlap
     ethr =  5.75E-10,  avg # of iterations =  2.9

     total cpu time spent up to now is    11193.9 secs

     total energy              =    -427.24675709 Ry
     Harris-Foulkes estimate   =    -427.24675710 Ry
     estimated scf accuracy    <       0.00000001 Ry

     iteration # 10     ecut=    25.00 Ry     beta= 0.70
     Davidson diagonalization with overlap
     ethr =  2.31E-11,  avg # of iterations =  2.9

     total cpu time spent up to now is    11206.7 secs

     total energy              =    -427.24675709 Ry
     Harris-Foulkes estimate   =    -427.24675709 Ry
     estimated scf accuracy    <          5.9E-10 Ry

     iteration # 11     ecut=    25.00 Ry     beta= 0.70
     Davidson diagonalization with overlap
     ethr =  1.14E-12,  avg # of iterations =  2.5

     total cpu time spent up to now is    11220.1 secs

     total energy              =    -427.24675709 Ry
     Harris-Foulkes estimate   =    -427.24675709 Ry
     estimated scf accuracy    <          2.7E-11 Ry

     iteration # 12     ecut=    25.00 Ry     beta= 0.70
     Davidson diagonalization with overlap
     ethr =  1.00E-13,  avg # of iterations =  2.0

     total cpu time spent up to now is    11231.4 secs

     End of self-consistent calculation

     Number of k-points >= 100: set verbosity='high' to print the bands.

     highest occupied level (ev):    28.5670

!    total energy              =    -427.24675709 Ry
     Harris-Foulkes estimate   =    -427.24675709 Ry
     estimated scf accuracy    <          6.9E-13 Ry

     The total energy is the sum of the following terms:

     one-electron contribution =      34.95162571 Ry
     hartree contribution      =      50.85713791 Ry
     xc contribution           =    -120.94177410 Ry
     ewald contribution        =    -392.11374662 Ry

     convergence has been achieved in  12 iterations

     Forces acting on atoms (cartesian axes, Ry/au):

     atom    1 type  1   force =     0.08950555    0.08950555    0.00000000
     atom    2 type  1   force =     0.01271943    0.01271943    0.00000000
     atom    3 type  2   force =     0.00996883   -0.08987739    0.00000000
     atom    4 type  2   force =    -0.08987739    0.00996883    0.00000000
     atom    5 type  2   force =    -0.07457736   -0.07457736    0.00000000
     atom    6 type  2   force =     0.05226094    0.05226094    0.00000000

     Total force =     0.222006     Total SCF correction =     0.000004


     Computing stress (Cartesian axis) and pressure

          total   stress  (Ry/bohr**3)                   (kbar)     P=********
  -0.09767595   0.00945434   0.00000000     -14368.63   1390.78      0.00
   0.00945434  -0.09767595   0.00000000       1390.78 -14368.63      0.00
   0.00000000   0.00000000  -0.08992443          0.00      0.00 -13228.34


     Writing output data file SnO2.save
 
     init_run     :     12.81s CPU     13.23s WALL (       2 calls)
     electrons    :  10596.41s CPU  10832.72s WALL (      42 calls)
     update_pot   :     21.03s CPU     21.14s WALL (      40 calls)
     forces       :    104.58s CPU    107.34s WALL (      42 calls)
     stress       :    240.97s CPU    250.42s WALL (      42 calls)

     Called by init_run:
     wfcinit      :     12.16s CPU     12.55s WALL (       2 calls)
     potinit      :      0.18s CPU      0.20s WALL (       2 calls)
     hinit0       :      0.45s CPU      0.46s WALL (       2 calls)

     Called by electrons:
     c_bands      :   9618.24s CPU   9829.12s WALL (     430 calls)
     sum_band     :    973.74s CPU    996.56s WALL (     430 calls)
     v_of_rho     :      3.74s CPU      3.77s WALL (     462 calls)
     mix_rho      :      0.80s CPU      0.87s WALL (     430 calls)

     Called by c_bands:
     init_us_2    :    126.22s CPU    156.90s WALL (  284746 calls)
     cegterg      :   8765.44s CPU   8965.06s WALL (  129430 calls)

     Called by sum_band:

     Called by *egterg:
     h_psi        :   6314.42s CPU   6564.35s WALL (  457935 calls)
     g_psi        :     59.53s CPU     62.11s WALL (  327903 calls)
     cdiaghg      :   1084.96s CPU   1070.66s WALL (  442283 calls)

     Called by h_psi:
     h_psi:pot    :   6291.19s CPU   6530.67s WALL (  457935 calls)
     h_psi:calbec :    549.21s CPU    530.22s WALL (  457935 calls)
     vloc_psi     :   5405.06s CPU   5463.80s WALL (  457935 calls)
     add_vuspsi   :    335.94s CPU    533.77s WALL (  457935 calls)

     General routines
     calbec       :    651.74s CPU    612.66s WALL (  521145 calls)
     fft          :      2.22s CPU      2.39s WALL (    5720 calls)
     ffts         :      0.15s CPU      0.18s WALL (     430 calls)
     fftw         :   6228.83s CPU   5915.65s WALL (23244578 calls)
 
     Parallel routines
     fft_scatt_xy :     84.13s CPU    444.77s WALL (23250728 calls)
     fft_scatt_yz :   5241.41s CPU   1278.00s WALL (23250728 calls)
 
     PWSCF        :     3h 3m CPU        3h 7m WALL

 
   This run was terminated on:  20:58:11   8Apr2018            

=------------------------------------------------------------------------------=
   JOB DONE.
=------------------------------------------------------------------------------=
