
     Program PWSCF v.6.2.2 starts on  7Apr2018 at 23:58:45 

     This program is part of the open-source Quantum ESPRESSO suite
     for quantum simulation of materials; please cite
         "P. Giannozzi et al., J. Phys.:Condens. Matter 21 395502 (2009);
         "P. Giannozzi et al., J. Phys.:Condens. Matter 29 465901 (2017);
          URL http://www.quantum-espresso.org", 
     in publications or presentations arising from this work. More details at
     http://www.quantum-espresso.org/quote

     Parallel version (MPI), running on     2 processors

     MPI processes distributed on     1 nodes
     R & G space division:  proc/nbgrp/npool/nimage =       2
     Reading input from Conv_acell-ecut.in

     Current dimensions of program PWSCF are:
     Max number of different atomic species (ntypx) = 10
     Max number of k-points (npk) =  40000
     Max angular momentum in pseudopotentials (lmaxx) =  3

     Subspace diagonalization in iterative solution of the eigenvalue problem:
     a serial algorithm will be used

 
     Parallelization info
     --------------------
     sticks:   dense  smooth     PW     G-vecs:    dense   smooth      PW
     Min         158     158     56                 1432     1432     304
     Max         159     159     57                 1433     1433     305
     Sum         317     317    113                 2865     2865     609
 


     bravais-lattice index     =            6
     lattice parameter (alat)  =       9.1100  a.u.
     unit-cell volume          =     506.5589 (a.u.)^3
     number of atoms/cell      =            6
     number of atomic types    =            2
     number of electrons       =        52.00
     number of Kohn-Sham states=           26
     kinetic-energy cutoff     =      12.0000  Ry
     charge density cutoff     =      48.0000  Ry
     convergence threshold     =      1.0E-12
     mixing beta               =       0.7000
     number of iterations used =            8  plain     mixing
     Exchange-correlation      = PBE ( 1  4  3  4 0 0)
     nstep                     =           50


     celldm(1)=   9.110000  celldm(2)=   0.000000  celldm(3)=   0.670000
     celldm(4)=   0.000000  celldm(5)=   0.000000  celldm(6)=   0.000000

     crystal axes: (cart. coord. in units of alat)
               a(1) = (   1.000000   0.000000   0.000000 )  
               a(2) = (   0.000000   1.000000   0.000000 )  
               a(3) = (   0.000000   0.000000   0.670000 )  

     reciprocal axes: (cart. coord. in units 2 pi/alat)
               b(1) = (  1.000000  0.000000  0.000000 )  
               b(2) = (  0.000000  1.000000  0.000000 )  
               b(3) = (  0.000000  0.000000  1.492537 )  


     PseudoPot. # 1 for Sn read from file:
     ../../Pseudo_potentials/Sn_PBE.upf
     MD5 check sum: 78e6386ae56e929f0568ae8bf606a80c
     Pseudo is Norm-conserving + core correction, Zval = 14.0
     Generated using ONCVPSP code by D. R. Hamann
     Using radial grid of 1628 points,  6 beta functions with: 
                l(1) =   0
                l(2) =   0
                l(3) =   1
                l(4) =   1
                l(5) =   2
                l(6) =   2

     PseudoPot. # 2 for O  read from file:
     ../../Pseudo_potentials/O_PBE.upf
     MD5 check sum: 3e3f909f7470e8921608ab6b1f57bbae
     Pseudo is Norm-conserving + core correction, Zval =  6.0
     Generated using ONCVPSP code by D. R. Hamann
     Using radial grid of  936 points,  5 beta functions with: 
                l(1) =   0
                l(2) =   0
                l(3) =   1
                l(4) =   1
                l(5) =   2

     atomic species   valence    mass     pseudopotential
        Sn            14.00   118.71000     Sn( 1.00)
        O              6.00    15.99900     O ( 1.00)

      4 Sym. Ops. (no inversion) found



   Cartesian axes

     site n.     atom                  positions (alat units)
         1           Sn  tau(   1) = (   0.0000000   0.0000000   0.0000000  )
         2           Sn  tau(   2) = (   0.5000000   0.5000000   0.3350000  )
         3           O   tau(   3) = (   0.8060000   0.1930000   0.3350000  )
         4           O   tau(   4) = (   0.1930000   0.8060000   0.3350000  )
         5           O   tau(   5) = (   0.3060000   0.3060000   0.0000000  )
         6           O   tau(   6) = (   0.6930000   0.6930000   0.0000000  )

     number of k points=   186

     Number of k-points >= 100: set verbosity='high' to print them.

     Dense  grid:     2865 G-vectors     FFT dimensions: (  24,  24,  15)

     Estimated max dynamical RAM per process >      18.73 MB

     Estimated total dynamical RAM >      37.45 MB

     Check: negative/imaginary core charge=   -0.006454    0.000000

     Initial potential from superposition of free atoms
     Check: negative starting charge=   -0.065968

     starting charge   51.99690, renormalised to   52.00000

     negative rho (up, down):  6.597E-02 0.000E+00
     Starting wfc are   34 randomized atomic wfcs

     total cpu time spent up to now is        6.6 secs

     Self-consistent Calculation

     iteration #  1     ecut=    12.00 Ry     beta= 0.70
     Davidson diagonalization with overlap
     ethr =  1.00E-02,  avg # of iterations =  3.4

     negative rho (up, down):  1.350E-02 0.000E+00

     total cpu time spent up to now is       25.8 secs

     total energy              =    -376.85424156 Ry
     Harris-Foulkes estimate   =    -405.51536401 Ry
     estimated scf accuracy    <      36.55343713 Ry

     iteration #  2     ecut=    12.00 Ry     beta= 0.70
     Davidson diagonalization with overlap
     ethr =  1.00E-02,  avg # of iterations =  3.2

     negative rho (up, down):  2.528E-03 0.000E+00

     total cpu time spent up to now is       41.2 secs

     total energy              =    -382.91463281 Ry
     Harris-Foulkes estimate   =    -387.92248425 Ry
     estimated scf accuracy    <       8.28892971 Ry

     iteration #  3     ecut=    12.00 Ry     beta= 0.70
     Davidson diagonalization with overlap
     ethr =  1.00E-02,  avg # of iterations =  3.2

     total cpu time spent up to now is       52.4 secs

     total energy              =    -384.70645779 Ry
     Harris-Foulkes estimate   =    -385.39400378 Ry
     estimated scf accuracy    <       1.13534726 Ry

     iteration #  4     ecut=    12.00 Ry     beta= 0.70
     Davidson diagonalization with overlap
     ethr =  2.18E-03,  avg # of iterations =  2.2

     total cpu time spent up to now is       60.0 secs

     total energy              =    -384.94692294 Ry
     Harris-Foulkes estimate   =    -384.97122944 Ry
     estimated scf accuracy    <       0.04759168 Ry

     iteration #  5     ecut=    12.00 Ry     beta= 0.70
     Davidson diagonalization with overlap
     ethr =  9.15E-05,  avg # of iterations =  2.5

     total cpu time spent up to now is       67.1 secs

     total energy              =    -384.95518741 Ry
     Harris-Foulkes estimate   =    -384.95545308 Ry
     estimated scf accuracy    <       0.00061991 Ry

     iteration #  6     ecut=    12.00 Ry     beta= 0.70
     Davidson diagonalization with overlap
     ethr =  1.19E-06,  avg # of iterations =  3.2

     total cpu time spent up to now is       75.9 secs

     total energy              =    -384.95664670 Ry
     Harris-Foulkes estimate   =    -384.95685531 Ry
     estimated scf accuracy    <       0.00037210 Ry

     iteration #  7     ecut=    12.00 Ry     beta= 0.70
     Davidson diagonalization with overlap
     ethr =  7.16E-07,  avg # of iterations =  3.0

     total cpu time spent up to now is       84.3 secs

     total energy              =    -384.95674443 Ry
     Harris-Foulkes estimate   =    -384.95679845 Ry
     estimated scf accuracy    <       0.00013119 Ry

     iteration #  8     ecut=    12.00 Ry     beta= 0.70
     Davidson diagonalization with overlap
     ethr =  2.52E-07,  avg # of iterations =  2.8

     total cpu time spent up to now is       91.4 secs

     total energy              =    -384.95676655 Ry
     Harris-Foulkes estimate   =    -384.95676742 Ry
     estimated scf accuracy    <       0.00000093 Ry

     iteration #  9     ecut=    12.00 Ry     beta= 0.70
     Davidson diagonalization with overlap
     ethr =  1.78E-09,  avg # of iterations =  3.2

     total cpu time spent up to now is      100.2 secs

     total energy              =    -384.95677728 Ry
     Harris-Foulkes estimate   =    -384.95677756 Ry
     estimated scf accuracy    <       0.00000235 Ry

     iteration # 10     ecut=    12.00 Ry     beta= 0.70
     Davidson diagonalization with overlap
     ethr =  1.78E-09,  avg # of iterations =  1.0

     total cpu time spent up to now is      105.1 secs

     total energy              =    -384.95677664 Ry
     Harris-Foulkes estimate   =    -384.95677729 Ry
     estimated scf accuracy    <       0.00000173 Ry

     iteration # 11     ecut=    12.00 Ry     beta= 0.70
     Davidson diagonalization with overlap
     ethr =  1.78E-09,  avg # of iterations =  3.2

     total cpu time spent up to now is      112.6 secs

     total energy              =    -384.95677679 Ry
     Harris-Foulkes estimate   =    -384.95677683 Ry
     estimated scf accuracy    <       0.00000011 Ry

     iteration # 12     ecut=    12.00 Ry     beta= 0.70
     Davidson diagonalization with overlap
     ethr =  2.09E-10,  avg # of iterations =  3.3

     total cpu time spent up to now is      120.2 secs

     total energy              =    -384.95677680 Ry
     Harris-Foulkes estimate   =    -384.95677681 Ry
     estimated scf accuracy    <          9.2E-09 Ry

     iteration # 13     ecut=    12.00 Ry     beta= 0.70
     Davidson diagonalization with overlap
     ethr =  1.76E-11,  avg # of iterations =  3.1

     total cpu time spent up to now is      128.4 secs

     total energy              =    -384.95677681 Ry
     Harris-Foulkes estimate   =    -384.95677680 Ry
     estimated scf accuracy    <          5.5E-10 Ry

     iteration # 14     ecut=    12.00 Ry     beta= 0.70
     Davidson diagonalization with overlap
     ethr =  1.06E-12,  avg # of iterations =  3.1

     total cpu time spent up to now is      136.2 secs

     total energy              =    -384.95677681 Ry
     Harris-Foulkes estimate   =    -384.95677681 Ry
     estimated scf accuracy    <          2.3E-11 Ry

     iteration # 15     ecut=    12.00 Ry     beta= 0.70
     Davidson diagonalization with overlap
     ethr =  1.00E-13,  avg # of iterations =  2.6

     total cpu time spent up to now is      144.4 secs

     total energy              =    -384.95677681 Ry
     Harris-Foulkes estimate   =    -384.95677681 Ry
     estimated scf accuracy    <          3.8E-12 Ry

     iteration # 16     ecut=    12.00 Ry     beta= 0.70
     Davidson diagonalization with overlap
     ethr =  1.00E-13,  avg # of iterations =  1.2

     total cpu time spent up to now is      150.4 secs

     End of self-consistent calculation

     Number of k-points >= 100: set verbosity='high' to print the bands.

     highest occupied level (ev):    15.5749

!    total energy              =    -384.95677681 Ry
     Harris-Foulkes estimate   =    -384.95677681 Ry
     estimated scf accuracy    <          3.2E-13 Ry

     The total energy is the sum of the following terms:

     one-electron contribution =     -30.95440323 Ry
     hartree contribution      =      54.85349111 Ry
     xc contribution           =    -106.37452871 Ry
     ewald contribution        =    -302.48133598 Ry

     convergence has been achieved in  16 iterations

     Forces acting on atoms (cartesian axes, Ry/au):

     atom    1 type  1   force =    -0.00716662   -0.00716662    0.00000000
     atom    2 type  1   force =    -0.00569653   -0.00569653    0.00000000
     atom    3 type  2   force =    -0.08267782    0.08248741    0.00000000
     atom    4 type  2   force =     0.08248741   -0.08267782    0.00000000
     atom    5 type  2   force =    -0.09166556   -0.09166556    0.00000000
     atom    6 type  2   force =     0.10471912    0.10471912    0.00000000

     Total force =     0.257264     Total SCF correction =     0.000002


     Computing stress (Cartesian axis) and pressure

          total   stress  (Ry/bohr**3)                   (kbar)     P=********
  -0.07634545  -0.00001550   0.00000000     -11230.80     -2.28      0.00
  -0.00001550  -0.07634545   0.00000000         -2.28 -11230.80      0.00
   0.00000000   0.00000000  -0.07109657          0.00      0.00 -10458.67


     BFGS Geometry Optimization

     number of scf cycles    =   1
     number of bfgs steps    =   0

     enthalpy new            =    -384.9567768075 Ry

     new trust radius        =       0.5000000000 bohr
     new conv_thr            =            1.0E-12 Ry

     new unit-cell volume =    358.86997 a.u.^3 (    53.17904 Ang^3 )
     density =      9.41185 g/cm^3

CELL_PARAMETERS (alat=  9.11000000)
   0.888922771  -0.000022550   0.000000000
  -0.000022550   0.888922771   0.000000000
   0.000000000   0.000000000   0.600694874

ATOMIC_POSITIONS (crystal)
Sn      -0.000045782  -0.000045782  -0.000000000
Sn       0.499963609   0.499963609   0.500000000
O        0.805471832   0.193526952   0.500000000
O        0.193526952   0.805471832   0.500000000
O        0.305414415   0.305414415   0.000000000
O        0.693668974   0.693668974   0.000000000



     Writing output data file SnO2.save
     Check: negative starting charge=   -0.065968
     NEW-OLD atomic charge density approx. for the potential

     Check: negative/imaginary core charge=   -0.006483    0.000000
     Check: negative starting charge=   -0.042705

     negative rho (up, down):  4.773E+00 0.000E+00
     extrapolated charge   30.60126, renormalised to   52.00000

     total cpu time spent up to now is      153.9 secs

     Self-consistent Calculation

     iteration #  1     ecut=    12.00 Ry     beta= 0.70
     Davidson diagonalization with overlap
     c_bands:  1 eigenvalues not converged
     c_bands:  1 eigenvalues not converged
     c_bands:  1 eigenvalues not converged
     c_bands:  1 eigenvalues not converged
     c_bands:  1 eigenvalues not converged
     c_bands:  1 eigenvalues not converged
     c_bands:  1 eigenvalues not converged
     c_bands:  1 eigenvalues not converged
     c_bands:  1 eigenvalues not converged
     ethr =  1.00E-06,  avg # of iterations = 15.0

     negative rho (up, down):  4.999E-04 0.000E+00

     total cpu time spent up to now is      186.8 secs

     total energy              =    -373.33501836 Ry
     Harris-Foulkes estimate   =    -436.99001957 Ry
     estimated scf accuracy    <      79.70553782 Ry

     iteration #  2     ecut=    12.00 Ry     beta= 0.70
     Davidson diagonalization with overlap
     ethr =  1.00E-02,  avg # of iterations =  4.6

     total cpu time spent up to now is      200.2 secs

     total energy              =    -391.91522768 Ry
     Harris-Foulkes estimate   =    -405.40040270 Ry
     estimated scf accuracy    <      19.85877796 Ry

     iteration #  3     ecut=    12.00 Ry     beta= 0.70
     Davidson diagonalization with overlap
     ethr =  1.00E-02,  avg # of iterations =  3.2

     total cpu time spent up to now is      209.5 secs

     total energy              =    -397.89771589 Ry
     Harris-Foulkes estimate   =    -398.13016157 Ry
     estimated scf accuracy    <       0.44585794 Ry

     iteration #  4     ecut=    12.00 Ry     beta= 0.70
     Davidson diagonalization with overlap
     ethr =  8.57E-04,  avg # of iterations =  2.5

     total cpu time spent up to now is      217.0 secs

     total energy              =    -397.97791416 Ry
     Harris-Foulkes estimate   =    -397.99001852 Ry
     estimated scf accuracy    <       0.02458535 Ry

     iteration #  5     ecut=    12.00 Ry     beta= 0.70
     Davidson diagonalization with overlap
     ethr =  4.73E-05,  avg # of iterations =  3.4

     total cpu time spent up to now is      225.6 secs

     total energy              =    -397.98160352 Ry
     Harris-Foulkes estimate   =    -397.98937955 Ry
     estimated scf accuracy    <       0.01533078 Ry

     iteration #  6     ecut=    12.00 Ry     beta= 0.70
     Davidson diagonalization with overlap
     ethr =  2.95E-05,  avg # of iterations =  3.2

     total cpu time spent up to now is      233.2 secs

     total energy              =    -397.98540870 Ry
     Harris-Foulkes estimate   =    -397.98607344 Ry
     estimated scf accuracy    <       0.00155428 Ry

     iteration #  7     ecut=    12.00 Ry     beta= 0.70
     Davidson diagonalization with overlap
     ethr =  2.99E-06,  avg # of iterations =  2.9

     total cpu time spent up to now is      241.9 secs

     total energy              =    -397.98570916 Ry
     Harris-Foulkes estimate   =    -397.98573768 Ry
     estimated scf accuracy    <       0.00004941 Ry

     iteration #  8     ecut=    12.00 Ry     beta= 0.70
     Davidson diagonalization with overlap
     ethr =  9.50E-08,  avg # of iterations =  3.3

     total cpu time spent up to now is      250.8 secs

     total energy              =    -397.98572170 Ry
     Harris-Foulkes estimate   =    -397.98573115 Ry
     estimated scf accuracy    <       0.00002025 Ry

     iteration #  9     ecut=    12.00 Ry     beta= 0.70
     Davidson diagonalization with overlap
     ethr =  3.89E-08,  avg # of iterations =  3.0

     total cpu time spent up to now is      258.6 secs

     total energy              =    -397.98572566 Ry
     Harris-Foulkes estimate   =    -397.98572610 Ry
     estimated scf accuracy    <       0.00000084 Ry

     iteration # 10     ecut=    12.00 Ry     beta= 0.70
     Davidson diagonalization with overlap
     ethr =  1.62E-09,  avg # of iterations =  3.1

     total cpu time spent up to now is      266.7 secs

     total energy              =    -397.98572584 Ry
     Harris-Foulkes estimate   =    -397.98572588 Ry
     estimated scf accuracy    <       0.00000008 Ry

     iteration # 11     ecut=    12.00 Ry     beta= 0.70
     Davidson diagonalization with overlap
     ethr =  1.46E-10,  avg # of iterations =  3.0

     total cpu time spent up to now is      274.2 secs

     total energy              =    -397.98572585 Ry
     Harris-Foulkes estimate   =    -397.98572585 Ry
     estimated scf accuracy    <          1.2E-09 Ry

     iteration # 12     ecut=    12.00 Ry     beta= 0.70
     Davidson diagonalization with overlap
     ethr =  2.24E-12,  avg # of iterations =  3.3

     total cpu time spent up to now is      282.9 secs

     total energy              =    -397.98572585 Ry
     Harris-Foulkes estimate   =    -397.98572585 Ry
     estimated scf accuracy    <          1.2E-10 Ry

     iteration # 13     ecut=    12.00 Ry     beta= 0.70
     Davidson diagonalization with overlap
     ethr =  2.36E-13,  avg # of iterations =  3.0

     total cpu time spent up to now is      291.2 secs

     total energy              =    -397.98572585 Ry
     Harris-Foulkes estimate   =    -397.98572585 Ry
     estimated scf accuracy    <          1.8E-11 Ry

     iteration # 14     ecut=    12.00 Ry     beta= 0.70
     Davidson diagonalization with overlap
     ethr =  1.00E-13,  avg # of iterations =  2.0

     total cpu time spent up to now is      297.1 secs

     End of self-consistent calculation

     Number of k-points >= 100: set verbosity='high' to print the bands.

     highest occupied level (ev):    23.4121

!    total energy              =    -397.98572585 Ry
     Harris-Foulkes estimate   =    -397.98572585 Ry
     estimated scf accuracy    <          5.2E-13 Ry

     The total energy is the sum of the following terms:

     one-electron contribution =       1.88475217 Ry
     hartree contribution      =      51.14040955 Ry
     xc contribution           =    -111.33203777 Ry
     ewald contribution        =    -339.67884980 Ry

     convergence has been achieved in  14 iterations

     Forces acting on atoms (cartesian axes, Ry/au):

     atom    1 type  1   force =    -0.00221553   -0.00221553    0.00000000
     atom    2 type  1   force =    -0.00143476   -0.00143476    0.00000000
     atom    3 type  2   force =    -0.11560291    0.10979512    0.00000000
     atom    4 type  2   force =     0.10979512   -0.11560291   -0.00000000
     atom    5 type  2   force =    -0.09902611   -0.09902611    0.00000000
     atom    6 type  2   force =     0.10848420    0.10848420   -0.00000000

     Total force =     0.306597     Total SCF correction =     0.000003


     Computing stress (Cartesian axis) and pressure

          total   stress  (Ry/bohr**3)                   (kbar)     P=********
  -0.10582538   0.00003759   0.00000000     -15567.45      5.53      0.00
   0.00003759  -0.10582538  -0.00000000          5.53 -15567.45     -0.00
   0.00000000  -0.00000000  -0.09853101          0.00     -0.00 -14494.41


     number of scf cycles    =   2
     number of bfgs steps    =   1

     enthalpy old            =    -384.9567768075 Ry
     enthalpy new            =    -397.9857258488 Ry

     CASE: enthalpy_new < enthalpy_old


     WARNING: bfgs curvature condition failed, Theta= 0.291
     new trust radius        =       0.7101512072 bohr
     new conv_thr            =            1.0E-12 Ry

     new unit-cell volume =    194.78303 a.u.^3 (    28.86387 Ang^3 )
     density =     17.34047 g/cm^3

CELL_PARAMETERS (alat=  9.11000000)
   0.722307249  -0.000344398   0.000000000
  -0.000344398   0.722307249   0.000000000
   0.000000000   0.000000000   0.493801204

ATOMIC_POSITIONS (crystal)
Sn      -0.000281828  -0.000281828   0.000000000
Sn       0.499767821   0.499767821   0.500000000
O        0.805001208   0.194135110   0.500000000
O        0.194135110   0.805001208   0.500000000
O        0.304163459   0.304163459   0.000000000
O        0.695214231   0.695214231   0.000000000



     Writing output data file SnO2.save
     Check: negative starting charge=   -0.042705
     NEW-OLD atomic charge density approx. for the potential

     Check: negative/imaginary core charge=   -0.004757    0.000000
     Check: negative starting charge=   -0.010455

     negative rho (up, down):  1.420E+01 0.000E+00
     extrapolated charge    8.19735, renormalised to   52.00000

     total cpu time spent up to now is      300.2 secs

     Self-consistent Calculation

     iteration #  1     ecut=    12.00 Ry     beta= 0.70
     Davidson diagonalization with overlap
     c_bands:  1 eigenvalues not converged
     c_bands:  1 eigenvalues not converged
     c_bands:  1 eigenvalues not converged
     ethr =  1.00E-06,  avg # of iterations = 15.2

     negative rho (up, down):  1.588E+01 0.000E+00

     total cpu time spent up to now is      332.8 secs

     total energy              =    -503.37668025 Ry
     Harris-Foulkes estimate   =    -858.33552748 Ry
     estimated scf accuracy    <    1897.68518936 Ry

     iteration #  2     ecut=    12.00 Ry     beta= 0.70
     Davidson diagonalization with overlap
     ethr =  1.00E-02,  avg # of iterations =  5.4

     total cpu time spent up to now is      349.0 secs

     total energy              =    -382.32498527 Ry
     Harris-Foulkes estimate   =    -510.90525662 Ry
     estimated scf accuracy    <     151.98011155 Ry

     iteration #  3     ecut=    12.00 Ry     beta= 0.70
     Davidson diagonalization with overlap
     ethr =  1.00E-02,  avg # of iterations =  4.6

     total cpu time spent up to now is      362.0 secs

     total energy              =    -418.32207771 Ry
     Harris-Foulkes estimate   =    -432.94184303 Ry
     estimated scf accuracy    <      34.13193722 Ry

     iteration #  4     ecut=    12.00 Ry     beta= 0.70
     Davidson diagonalization with overlap
     ethr =  1.00E-02,  avg # of iterations =  4.1

     total cpu time spent up to now is      371.9 secs

     total energy              =    -416.24221874 Ry
     Harris-Foulkes estimate   =    -420.65478452 Ry
     estimated scf accuracy    <       7.13227972 Ry

     iteration #  5     ecut=    12.00 Ry     beta= 0.70
     Davidson diagonalization with overlap
     ethr =  1.00E-02,  avg # of iterations =  2.6

     total cpu time spent up to now is      378.9 secs

     total energy              =    -416.47706888 Ry
     Harris-Foulkes estimate   =    -416.83228411 Ry
     estimated scf accuracy    <       1.01843997 Ry

     iteration #  6     ecut=    12.00 Ry     beta= 0.70
     Davidson diagonalization with overlap
     ethr =  1.96E-03,  avg # of iterations =  2.3

     negative rho (up, down):  5.351E-03 0.000E+00

     total cpu time spent up to now is      385.5 secs

     total energy              =    -416.28999440 Ry
     Harris-Foulkes estimate   =    -416.57941872 Ry
     estimated scf accuracy    <       0.38306776 Ry

     iteration #  7     ecut=    12.00 Ry     beta= 0.70
     Davidson diagonalization with overlap
     ethr =  7.37E-04,  avg # of iterations =  2.5

     total cpu time spent up to now is      393.2 secs

     total energy              =    -416.35740696 Ry
     Harris-Foulkes estimate   =    -416.36807431 Ry
     estimated scf accuracy    <       0.01678821 Ry

     iteration #  8     ecut=    12.00 Ry     beta= 0.70
     Davidson diagonalization with overlap
     ethr =  3.23E-05,  avg # of iterations =  2.1

     total cpu time spent up to now is      399.9 secs

     total energy              =    -416.35890560 Ry
     Harris-Foulkes estimate   =    -416.35951969 Ry
     estimated scf accuracy    <       0.00232843 Ry

     iteration #  9     ecut=    12.00 Ry     beta= 0.70
     Davidson diagonalization with overlap
     ethr =  4.48E-06,  avg # of iterations =  2.0

     total cpu time spent up to now is      406.2 secs

     total energy              =    -416.35849083 Ry
     Harris-Foulkes estimate   =    -416.35911360 Ry
     estimated scf accuracy    <       0.00094706 Ry

     iteration # 10     ecut=    12.00 Ry     beta= 0.70
     Davidson diagonalization with overlap
     ethr =  1.82E-06,  avg # of iterations =  2.2

     total cpu time spent up to now is      412.8 secs

     total energy              =    -416.35856208 Ry
     Harris-Foulkes estimate   =    -416.35859064 Ry
     estimated scf accuracy    <       0.00005084 Ry

     iteration # 11     ecut=    12.00 Ry     beta= 0.70
     Davidson diagonalization with overlap
     ethr =  9.78E-08,  avg # of iterations =  2.5

     total cpu time spent up to now is      420.0 secs

     total energy              =    -416.35856610 Ry
     Harris-Foulkes estimate   =    -416.35856926 Ry
     estimated scf accuracy    <       0.00000503 Ry

     iteration # 12     ecut=    12.00 Ry     beta= 0.70
     Davidson diagonalization with overlap
     ethr =  9.68E-09,  avg # of iterations =  2.3

     total cpu time spent up to now is      429.5 secs

     total energy              =    -416.35856698 Ry
     Harris-Foulkes estimate   =    -416.35856699 Ry
     estimated scf accuracy    <       0.00000002 Ry

     iteration # 13     ecut=    12.00 Ry     beta= 0.70
     Davidson diagonalization with overlap
     ethr =  2.95E-11,  avg # of iterations =  3.5

     total cpu time spent up to now is      439.7 secs

     total energy              =    -416.35856699 Ry
     Harris-Foulkes estimate   =    -416.35856699 Ry
     estimated scf accuracy    <          5.2E-10 Ry

     iteration # 14     ecut=    12.00 Ry     beta= 0.70
     Davidson diagonalization with overlap
     ethr =  9.98E-13,  avg # of iterations =  2.7

     total cpu time spent up to now is      447.7 secs

     total energy              =    -416.35856699 Ry
     Harris-Foulkes estimate   =    -416.35856699 Ry
     estimated scf accuracy    <          3.3E-11 Ry

     iteration # 15     ecut=    12.00 Ry     beta= 0.70
     Davidson diagonalization with overlap
     ethr =  1.00E-13,  avg # of iterations =  2.0

     total cpu time spent up to now is      454.6 secs

     total energy              =    -416.35856699 Ry
     Harris-Foulkes estimate   =    -416.35856699 Ry
     estimated scf accuracy    <          2.5E-12 Ry

     iteration # 16     ecut=    12.00 Ry     beta= 0.70
     Davidson diagonalization with overlap
     ethr =  1.00E-13,  avg # of iterations =  1.0

     total cpu time spent up to now is      459.5 secs

     End of self-consistent calculation

     Number of k-points >= 100: set verbosity='high' to print the bands.

     highest occupied level (ev):    43.1613

!    total energy              =    -416.35856699 Ry
     Harris-Foulkes estimate   =    -416.35856699 Ry
     estimated scf accuracy    <          1.7E-13 Ry

     The total energy is the sum of the following terms:

     one-electron contribution =      77.85281947 Ry
     hartree contribution      =      45.53047746 Ry
     xc contribution           =    -122.72688180 Ry
     ewald contribution        =    -417.01498212 Ry

     convergence has been achieved in  16 iterations

     Forces acting on atoms (cartesian axes, Ry/au):

     atom    1 type  1   force =     0.00137689    0.00137689   -0.00000000
     atom    2 type  1   force =    -0.00032574   -0.00032574    0.00000000
     atom    3 type  2   force =    -0.16911949    0.16556573    0.00000000
     atom    4 type  2   force =     0.16556573   -0.16911949   -0.00000000
     atom    5 type  2   force =    -0.12205484   -0.12205484    0.00000000
     atom    6 type  2   force =     0.12455745    0.12455745   -0.00000000

     Total force =     0.415758     Total SCF correction =     0.000003


     Computing stress (Cartesian axis) and pressure

          total   stress  (Ry/bohr**3)                   (kbar)     P=********
  -0.09497718   0.00076465   0.00000000     -13971.62    112.48      0.00
   0.00076465  -0.09497718  -0.00000000        112.48 -13971.62     -0.00
   0.00000000  -0.00000000  -0.07461857          0.00     -0.00 -10976.77


     number of scf cycles    =   3
     number of bfgs steps    =   2

     enthalpy old            =    -397.9857258488 Ry
     enthalpy new            =    -416.3585669900 Ry

     CASE: enthalpy_new < enthalpy_old

     new trust radius        =       0.8000000000 bohr
     new conv_thr            =            1.0E-12 Ry

     new unit-cell volume =    105.03816 a.u.^3 (    15.56505 Ang^3 )
     density =     32.15621 g/cm^3

CELL_PARAMETERS (alat=  9.11000000)
   0.515575418   0.010719041   0.000000000
   0.010719041   0.515575418  -0.000000000
   0.000000000  -0.000000000   0.522871912

ATOMIC_POSITIONS (crystal)
Sn      -0.000180236  -0.000180236   0.000000000
Sn       0.499681023   0.499681023   0.500000000
O        0.796022019   0.203273201   0.500000000
O        0.203273201   0.796022019   0.500000000
O        0.298049879   0.298049879   0.000000000
O        0.701154115   0.701154115   0.000000000



     Writing output data file SnO2.save
     Check: negative starting charge=   -0.010455
     NEW-OLD atomic charge density approx. for the potential

     Check: negative/imaginary core charge=   -0.002504    0.000000

     negative rho (up, down):  9.093E+00 0.000E+00
     extrapolated charge    7.57371, renormalised to   52.00000

     total cpu time spent up to now is      462.5 secs

     Self-consistent Calculation

     iteration #  1     ecut=    12.00 Ry     beta= 0.70
     Davidson diagonalization with overlap
     ethr =  1.00E-06,  avg # of iterations = 10.5

     negative rho (up, down):  8.998E+00 0.000E+00

     total cpu time spent up to now is      488.1 secs

     total energy              =    -435.20632825 Ry
     Harris-Foulkes estimate   =    -611.16451162 Ry
     estimated scf accuracy    <    1106.41899538 Ry

     iteration #  2     ecut=    12.00 Ry     beta= 0.70
     Davidson diagonalization with overlap
     ethr =  1.00E-02,  avg # of iterations =  3.8

     total cpu time spent up to now is      498.8 secs

     total energy              =    -375.08587226 Ry
     Harris-Foulkes estimate   =    -443.45958663 Ry
     estimated scf accuracy    <      90.23227195 Ry

     iteration #  3     ecut=    12.00 Ry     beta= 0.70
     Davidson diagonalization with overlap
     ethr =  1.00E-02,  avg # of iterations =  5.3

     total cpu time spent up to now is      511.9 secs

     total energy              =    -404.18429179 Ry
     Harris-Foulkes estimate   =    -421.12951342 Ry
     estimated scf accuracy    <      29.79676022 Ry

     iteration #  4     ecut=    12.00 Ry     beta= 0.70
     Davidson diagonalization with overlap
     ethr =  1.00E-02,  avg # of iterations =  3.9

     total cpu time spent up to now is      523.3 secs

     total energy              =    -403.65873347 Ry
     Harris-Foulkes estimate   =    -406.64677599 Ry
     estimated scf accuracy    <       4.16363772 Ry

     iteration #  5     ecut=    12.00 Ry     beta= 0.70
     Davidson diagonalization with overlap
     ethr =  8.01E-03,  avg # of iterations =  2.6

     total cpu time spent up to now is      529.9 secs

     total energy              =    -403.96897522 Ry
     Harris-Foulkes estimate   =    -404.11049650 Ry
     estimated scf accuracy    <       0.23422122 Ry

     iteration #  6     ecut=    12.00 Ry     beta= 0.70
     Davidson diagonalization with overlap
     ethr =  4.50E-04,  avg # of iterations =  3.9

     total cpu time spent up to now is      537.9 secs

     total energy              =    -404.02203661 Ry
     Harris-Foulkes estimate   =    -404.03848806 Ry
     estimated scf accuracy    <       0.02148467 Ry

     iteration #  7     ecut=    12.00 Ry     beta= 0.70
     Davidson diagonalization with overlap
     ethr =  4.13E-05,  avg # of iterations =  3.9

     total cpu time spent up to now is      547.6 secs

     total energy              =    -404.04641961 Ry
     Harris-Foulkes estimate   =    -404.04710432 Ry
     estimated scf accuracy    <       0.00127854 Ry

     iteration #  8     ecut=    12.00 Ry     beta= 0.70
     Davidson diagonalization with overlap
     ethr =  2.46E-06,  avg # of iterations =  3.4

     total cpu time spent up to now is      557.6 secs

     total energy              =    -404.05016879 Ry
     Harris-Foulkes estimate   =    -404.05019915 Ry
     estimated scf accuracy    <       0.00007845 Ry

     iteration #  9     ecut=    12.00 Ry     beta= 0.70
     Davidson diagonalization with overlap
     ethr =  1.51E-07,  avg # of iterations =  3.6

     total cpu time spent up to now is      566.9 secs

     total energy              =    -404.05017971 Ry
     Harris-Foulkes estimate   =    -404.05019030 Ry
     estimated scf accuracy    <       0.00001344 Ry

     iteration # 10     ecut=    12.00 Ry     beta= 0.70
     Davidson diagonalization with overlap
     ethr =  2.58E-08,  avg # of iterations =  3.6

     total cpu time spent up to now is      576.4 secs

     total energy              =    -404.05204097 Ry
     Harris-Foulkes estimate   =    -404.05204424 Ry
     estimated scf accuracy    <       0.00000811 Ry

     iteration # 11     ecut=    12.00 Ry     beta= 0.70
     Davidson diagonalization with overlap
     ethr =  1.56E-08,  avg # of iterations =  2.5

     total cpu time spent up to now is      582.3 secs

     total energy              =    -404.05204158 Ry
     Harris-Foulkes estimate   =    -404.05204181 Ry
     estimated scf accuracy    <       0.00000102 Ry

     iteration # 12     ecut=    12.00 Ry     beta= 0.70
     Davidson diagonalization with overlap
     ethr =  1.97E-09,  avg # of iterations =  3.2

     total cpu time spent up to now is      588.6 secs

     total energy              =    -404.05204151 Ry
     Harris-Foulkes estimate   =    -404.05204166 Ry
     estimated scf accuracy    <       0.00000038 Ry

     iteration # 13     ecut=    12.00 Ry     beta= 0.70
     Davidson diagonalization with overlap
     ethr =  7.24E-10,  avg # of iterations =  3.5

     total cpu time spent up to now is      595.9 secs

     total energy              =    -404.05435783 Ry
     Harris-Foulkes estimate   =    -404.05435806 Ry
     estimated scf accuracy    <       0.00000769 Ry

     iteration # 14     ecut=    12.00 Ry     beta= 0.70
     Davidson diagonalization with overlap
     ethr =  7.24E-10,  avg # of iterations =  1.0

     total cpu time spent up to now is      600.7 secs

     total energy              =    -404.05435685 Ry
     Harris-Foulkes estimate   =    -404.05435783 Ry
     estimated scf accuracy    <       0.00000712 Ry

     iteration # 15     ecut=    12.00 Ry     beta= 0.70
     Davidson diagonalization with overlap
     ethr =  7.24E-10,  avg # of iterations =  3.3

     total cpu time spent up to now is      610.4 secs

     total energy              =    -404.05435630 Ry
     Harris-Foulkes estimate   =    -404.05435694 Ry
     estimated scf accuracy    <       0.00000412 Ry

     iteration # 16     ecut=    12.00 Ry     beta= 0.70
     Davidson diagonalization with overlap
     ethr =  7.24E-10,  avg # of iterations =  3.2

     total cpu time spent up to now is      618.7 secs

     total energy              =    -404.05540152 Ry
     Harris-Foulkes estimate   =    -404.05540134 Ry
     estimated scf accuracy    <       0.00000407 Ry

     iteration # 17     ecut=    12.00 Ry     beta= 0.70
     Davidson diagonalization with overlap
     ethr =  7.24E-10,  avg # of iterations =  1.0

     total cpu time spent up to now is      623.5 secs

     total energy              =    -404.05540021 Ry
     Harris-Foulkes estimate   =    -404.05540153 Ry
     estimated scf accuracy    <       0.00000455 Ry

     iteration # 18     ecut=    12.00 Ry     beta= 0.70
     Davidson diagonalization with overlap
     ethr =  7.24E-10,  avg # of iterations =  3.9

     total cpu time spent up to now is      633.2 secs

     total energy              =    -404.05739301 Ry
     Harris-Foulkes estimate   =    -404.05739329 Ry
     estimated scf accuracy    <       0.00001369 Ry

     iteration # 19     ecut=    12.00 Ry     beta= 0.70
     Davidson diagonalization with overlap
     ethr =  7.24E-10,  avg # of iterations =  1.0

     total cpu time spent up to now is      638.0 secs

     total energy              =    -404.05739238 Ry
     Harris-Foulkes estimate   =    -404.05739301 Ry
     estimated scf accuracy    <       0.00001305 Ry

     iteration # 20     ecut=    12.00 Ry     beta= 0.70
     Davidson diagonalization with overlap
     ethr =  7.24E-10,  avg # of iterations =  2.0

     total cpu time spent up to now is      643.4 secs

     total energy              =    -404.05739179 Ry
     Harris-Foulkes estimate   =    -404.05739239 Ry
     estimated scf accuracy    <       0.00001146 Ry

     iteration # 21     ecut=    12.00 Ry     beta= 0.70
     Davidson diagonalization with overlap
     ethr =  7.24E-10,  avg # of iterations =  1.9

     total cpu time spent up to now is      648.8 secs

     total energy              =    -404.05738913 Ry
     Harris-Foulkes estimate   =    -404.05739180 Ry
     estimated scf accuracy    <       0.00000999 Ry

     iteration # 22     ecut=    12.00 Ry     beta= 0.70
     Davidson diagonalization with overlap
     ethr =  7.24E-10,  avg # of iterations =  4.1

     total cpu time spent up to now is      659.5 secs

     total energy              =    -404.05821064 Ry
     Harris-Foulkes estimate   =    -404.05821064 Ry
     estimated scf accuracy    <       0.00000665 Ry

     iteration # 23     ecut=    12.00 Ry     beta= 0.70
     Davidson diagonalization with overlap
     ethr =  7.24E-10,  avg # of iterations =  1.0

     total cpu time spent up to now is      664.5 secs

     total energy              =    -404.05821068 Ry
     Harris-Foulkes estimate   =    -404.05821064 Ry
     estimated scf accuracy    <       0.00000665 Ry

     iteration # 24     ecut=    12.00 Ry     beta= 0.70
     Davidson diagonalization with overlap
     ethr =  7.24E-10,  avg # of iterations =  3.7

     total cpu time spent up to now is      673.6 secs

     total energy              =    -404.05821102 Ry
     Harris-Foulkes estimate   =    -404.05821079 Ry
     estimated scf accuracy    <       0.00000724 Ry

     iteration # 25     ecut=    12.00 Ry     beta= 0.70
     Davidson diagonalization with overlap
     ethr =  7.24E-10,  avg # of iterations =  4.0

     total cpu time spent up to now is      683.4 secs

     total energy              =    -404.05821206 Ry
     Harris-Foulkes estimate   =    -404.05821122 Ry
     estimated scf accuracy    <       0.00000840 Ry

     iteration # 26     ecut=    12.00 Ry     beta= 0.70
     Davidson diagonalization with overlap
     ethr =  7.24E-10,  avg # of iterations =  4.0

     total cpu time spent up to now is      695.8 secs

     total energy              =    -404.05822084 Ry
     Harris-Foulkes estimate   =    -404.05821239 Ry
     estimated scf accuracy    <       0.00001089 Ry

     iteration # 27     ecut=    12.00 Ry     beta= 0.70
     Davidson diagonalization with overlap
     c_bands:  1 eigenvalues not converged
     c_bands:  1 eigenvalues not converged
     ethr =  7.24E-10,  avg # of iterations =  6.8

     total cpu time spent up to now is      709.9 secs

     total energy              =    -404.05823831 Ry
     Harris-Foulkes estimate   =    -404.05823196 Ry
     estimated scf accuracy    <       0.00006321 Ry

     iteration # 28     ecut=    12.00 Ry     beta= 0.70
     Davidson diagonalization with overlap
     ethr =  7.24E-10,  avg # of iterations =  4.2

     total cpu time spent up to now is      720.4 secs

     total energy              =    -404.05820479 Ry
     Harris-Foulkes estimate   =    -404.05823852 Ry
     estimated scf accuracy    <       0.00008089 Ry

     iteration # 29     ecut=    12.00 Ry     beta= 0.70
     Davidson diagonalization with overlap
     c_bands:  1 eigenvalues not converged
     c_bands:  1 eigenvalues not converged
     ethr =  7.24E-10,  avg # of iterations =  7.0

     total cpu time spent up to now is      734.1 secs

     total energy              =    -404.05820720 Ry
     Harris-Foulkes estimate   =    -404.05821124 Ry
     estimated scf accuracy    <       0.00000777 Ry

     iteration # 30     ecut=    12.00 Ry     beta= 0.70
     Davidson diagonalization with overlap
     ethr =  7.24E-10,  avg # of iterations =  4.7

     total cpu time spent up to now is      746.7 secs

     total energy              =    -404.05820825 Ry
     Harris-Foulkes estimate   =    -404.05820830 Ry
     estimated scf accuracy    <       0.00000009 Ry

     iteration # 31     ecut=    12.00 Ry     beta= 0.70
     Davidson diagonalization with overlap
     ethr =  1.70E-10,  avg # of iterations =  2.9

     total cpu time spent up to now is      753.1 secs

     total energy              =    -404.05820826 Ry
     Harris-Foulkes estimate   =    -404.05820826 Ry
     estimated scf accuracy    <          5.9E-09 Ry

     iteration # 32     ecut=    12.00 Ry     beta= 0.70
     Davidson diagonalization with overlap
     ethr =  1.13E-11,  avg # of iterations =  4.0

     total cpu time spent up to now is      762.7 secs

     total energy              =    -404.05820826 Ry
     Harris-Foulkes estimate   =    -404.05820826 Ry
     estimated scf accuracy    <          1.8E-09 Ry

     iteration # 33     ecut=    12.00 Ry     beta= 0.70
     Davidson diagonalization with overlap
     ethr =  3.48E-12,  avg # of iterations =  2.5

     total cpu time spent up to now is      769.6 secs

     total energy              =    -404.05820826 Ry
     Harris-Foulkes estimate   =    -404.05820826 Ry
     estimated scf accuracy    <          4.4E-11 Ry

     iteration # 34     ecut=    12.00 Ry     beta= 0.70
     Davidson diagonalization with overlap
     ethr =  1.00E-13,  avg # of iterations =  3.8

     total cpu time spent up to now is      780.3 secs

     total energy              =    -404.05820826 Ry
     Harris-Foulkes estimate   =    -404.05820826 Ry
     estimated scf accuracy    <          2.2E-12 Ry

     iteration # 35     ecut=    12.00 Ry     beta= 0.70
     Davidson diagonalization with overlap
     ethr =  1.00E-13,  avg # of iterations =  1.0

     total cpu time spent up to now is      785.4 secs

     End of self-consistent calculation

     Number of k-points >= 100: set verbosity='high' to print the bands.

     highest occupied level (ev):    81.1426

!    total energy              =    -404.05820826 Ry
     Harris-Foulkes estimate   =    -404.05820826 Ry
     estimated scf accuracy    <          4.1E-13 Ry

     The total energy is the sum of the following terms:

     one-electron contribution =     221.66072092 Ry
     hartree contribution      =      25.82067791 Ry
     xc contribution           =    -134.00588829 Ry
     ewald contribution        =    -517.53371879 Ry

     convergence has been achieved in  35 iterations

     Forces acting on atoms (cartesian axes, Ry/au):

     atom    1 type  1   force =    -0.03679509   -0.03679509    0.00000000
     atom    2 type  1   force =     0.00535446    0.00535446   -0.00000000
     atom    3 type  2   force =     7.27867539   -7.29326726   -0.00000000
     atom    4 type  2   force =    -7.29326726    7.27867539    0.00000000
     atom    5 type  2   force =     5.47328296    5.47328296   -0.00000000
     atom    6 type  2   force =    -5.42725046   -5.42725046    0.00000000

     Total force =    18.198028     Total SCF correction =     0.000002


     Computing stress (Cartesian axis) and pressure

          total   stress  (Ry/bohr**3)                   (kbar)     P=52412.20
   0.55299158  -0.05838899  -0.00000000      81347.86  -8589.31     -0.00
  -0.05838899   0.55299158   0.00000000      -8589.31  81347.86      0.00
  -0.00000000   0.00000000  -0.03711040         -0.00      0.00  -5459.13


     number of scf cycles    =   4
     number of bfgs steps    =   3

     enthalpy old            =    -416.3585669900 Ry
     enthalpy new            =    -404.0582082590 Ry

     CASE: enthalpy_new > enthalpy_old

     new trust radius        =       0.1829890625 bohr
     new conv_thr            =            1.0E-12 Ry

     new unit-cell volume =    173.07756 a.u.^3 (    25.64745 Ang^3 )
     density =     19.51512 g/cm^3

CELL_PARAMETERS (alat=  9.11000000)
   0.676477225   0.002108237   0.000000000
   0.002108237   0.676477225  -0.000000000
   0.000000000  -0.000000000   0.500245839

ATOMIC_POSITIONS (crystal)
Sn      -0.000259307  -0.000259307   0.000000000
Sn       0.499748579   0.499748579   0.500000000
O        0.803010627   0.196160918   0.500000000
O        0.196160918   0.803010627   0.500000000
O        0.302808150   0.302808150   0.000000000
O        0.696531033   0.696531033   0.000000000



     Writing output data file SnO2.save
     NEW-OLD atomic charge density approx. for the potential

     Check: negative/imaginary core charge=   -0.004134    0.000000
     Check: negative starting charge=   -0.005668

     negative rho (up, down):  3.323E-03 0.000E+00
     extrapolated charge   72.44077, renormalised to   52.00000

     total cpu time spent up to now is      788.5 secs

     Self-consistent Calculation

     iteration #  1     ecut=    12.00 Ry     beta= 0.70
     Davidson diagonalization with overlap
     c_bands:  1 eigenvalues not converged
     c_bands:  1 eigenvalues not converged
     c_bands:  1 eigenvalues not converged
     c_bands:  1 eigenvalues not converged
     c_bands:  1 eigenvalues not converged
     c_bands:  1 eigenvalues not converged
     c_bands:  1 eigenvalues not converged
     c_bands:  1 eigenvalues not converged
     c_bands:  1 eigenvalues not converged
     c_bands:  1 eigenvalues not converged
     c_bands:  1 eigenvalues not converged
     c_bands:  1 eigenvalues not converged
     c_bands:  1 eigenvalues not converged
     c_bands:  1 eigenvalues not converged
     c_bands:  1 eigenvalues not converged
     c_bands:  1 eigenvalues not converged
     c_bands:  1 eigenvalues not converged
     c_bands:  1 eigenvalues not converged
     c_bands:  1 eigenvalues not converged
     c_bands:  1 eigenvalues not converged
     c_bands:  1 eigenvalues not converged
     c_bands:  1 eigenvalues not converged
     c_bands:  1 eigenvalues not converged
     c_bands:  1 eigenvalues not converged
     c_bands:  1 eigenvalues not converged
     c_bands:  1 eigenvalues not converged
     c_bands:  1 eigenvalues not converged
     c_bands:  1 eigenvalues not converged
     ethr =  1.00E-06,  avg # of iterations = 14.4

     negative rho (up, down):  4.208E-04 0.000E+00

     total cpu time spent up to now is      814.1 secs

     total energy              =    -408.96649922 Ry
     Harris-Foulkes estimate   =    -424.58592734 Ry
     estimated scf accuracy    <       4.35120501 Ry

     iteration #  2     ecut=    12.00 Ry     beta= 0.70
     Davidson diagonalization with overlap
     ethr =  8.37E-03,  avg # of iterations =  4.9

     negative rho (up, down):  1.385E-04 0.000E+00

     total cpu time spent up to now is      826.9 secs

     total energy              =    -418.59358694 Ry
     Harris-Foulkes estimate   =    -421.11123872 Ry
     estimated scf accuracy    <       6.02201805 Ry

     iteration #  3     ecut=    12.00 Ry     beta= 0.70
     Davidson diagonalization with overlap
     ethr =  8.37E-03,  avg # of iterations =  1.0

     total cpu time spent up to now is      831.8 secs

     total energy              =    -417.57326349 Ry
     Harris-Foulkes estimate   =    -418.78212049 Ry
     estimated scf accuracy    <       1.86455440 Ry

     iteration #  4     ecut=    12.00 Ry     beta= 0.70
     Davidson diagonalization with overlap
     ethr =  3.59E-03,  avg # of iterations =  2.3

     total cpu time spent up to now is      839.5 secs

     total energy              =    -417.88094131 Ry
     Harris-Foulkes estimate   =    -417.88286869 Ry
     estimated scf accuracy    <       0.00505692 Ry

     iteration #  5     ecut=    12.00 Ry     beta= 0.70
     Davidson diagonalization with overlap
     ethr =  9.72E-06,  avg # of iterations =  3.1

     total cpu time spent up to now is      848.1 secs

     total energy              =    -417.88266650 Ry
     Harris-Foulkes estimate   =    -417.88285645 Ry
     estimated scf accuracy    <       0.00048595 Ry

     iteration #  6     ecut=    12.00 Ry     beta= 0.70
     Davidson diagonalization with overlap
     ethr =  9.35E-07,  avg # of iterations =  3.1

     total cpu time spent up to now is      858.2 secs

     total energy              =    -417.88263264 Ry
     Harris-Foulkes estimate   =    -417.88286150 Ry
     estimated scf accuracy    <       0.00038271 Ry

     iteration #  7     ecut=    12.00 Ry     beta= 0.70
     Davidson diagonalization with overlap
     ethr =  7.36E-07,  avg # of iterations =  2.5

     total cpu time spent up to now is      865.5 secs

     total energy              =    -417.88267234 Ry
     Harris-Foulkes estimate   =    -417.88268360 Ry
     estimated scf accuracy    <       0.00001869 Ry

     iteration #  8     ecut=    12.00 Ry     beta= 0.70
     Davidson diagonalization with overlap
     ethr =  3.59E-08,  avg # of iterations =  3.0

     total cpu time spent up to now is      874.1 secs

     total energy              =    -417.88267668 Ry
     Harris-Foulkes estimate   =    -417.88267684 Ry
     estimated scf accuracy    <       0.00000034 Ry

     iteration #  9     ecut=    12.00 Ry     beta= 0.70
     Davidson diagonalization with overlap
     ethr =  6.58E-10,  avg # of iterations =  2.6

     total cpu time spent up to now is      882.8 secs

     total energy              =    -417.88267672 Ry
     Harris-Foulkes estimate   =    -417.88267674 Ry
     estimated scf accuracy    <       0.00000005 Ry

     iteration # 10     ecut=    12.00 Ry     beta= 0.70
     Davidson diagonalization with overlap
     ethr =  9.36E-11,  avg # of iterations =  2.3

     total cpu time spent up to now is      889.3 secs

     total energy              =    -417.88267672 Ry
     Harris-Foulkes estimate   =    -417.88267673 Ry
     estimated scf accuracy    <          6.6E-09 Ry

     iteration # 11     ecut=    12.00 Ry     beta= 0.70
     Davidson diagonalization with overlap
     ethr =  1.26E-11,  avg # of iterations =  2.5

     total cpu time spent up to now is      896.5 secs

     total energy              =    -417.88267673 Ry
     Harris-Foulkes estimate   =    -417.88267673 Ry
     estimated scf accuracy    <          1.6E-10 Ry

     iteration # 12     ecut=    12.00 Ry     beta= 0.70
     Davidson diagonalization with overlap
     ethr =  3.04E-13,  avg # of iterations =  3.1

     total cpu time spent up to now is      905.0 secs

     total energy              =    -417.88267673 Ry
     Harris-Foulkes estimate   =    -417.88267673 Ry
     estimated scf accuracy    <          4.9E-12 Ry

     iteration # 13     ecut=    12.00 Ry     beta= 0.70
     Davidson diagonalization with overlap
     ethr =  1.00E-13,  avg # of iterations =  1.0

     total cpu time spent up to now is      909.8 secs

     End of self-consistent calculation

     Number of k-points >= 100: set verbosity='high' to print the bands.

     highest occupied level (ev):    48.0322

!    total energy              =    -417.88267673 Ry
     Harris-Foulkes estimate   =    -417.88267673 Ry
     estimated scf accuracy    <          9.0E-14 Ry

     The total energy is the sum of the following terms:

     one-electron contribution =     101.97241574 Ry
     hartree contribution      =      41.79196341 Ry
     xc contribution           =    -124.96514458 Ry
     ewald contribution        =    -436.68191130 Ry

     convergence has been achieved in  13 iterations

     Forces acting on atoms (cartesian axes, Ry/au):

     atom    1 type  1   force =    -0.00208979   -0.00208979    0.00000000
     atom    2 type  1   force =     0.00052823    0.00052823   -0.00000000
     atom    3 type  2   force =     0.42229094   -0.42688640   -0.00000000
     atom    4 type  2   force =    -0.42688640    0.42229094    0.00000000
     atom    5 type  2   force =     0.38713928    0.38713928   -0.00000000
     atom    6 type  2   force =    -0.38098227   -0.38098227    0.00000000

     Total force =     1.145068     Total SCF correction =     0.000000


     Computing stress (Cartesian axis) and pressure

          total   stress  (Ry/bohr**3)                   (kbar)     P=-8043.43
  -0.04231990  -0.00307648   0.00000000      -6225.47   -452.57      0.00
  -0.00307648  -0.04231990   0.00000000       -452.57  -6225.47      0.00
   0.00000000  -0.00000000  -0.07939457          0.00     -0.00 -11679.34


     number of scf cycles    =   5
     number of bfgs steps    =   3

     enthalpy old            =    -416.3585669900 Ry
     enthalpy new            =    -417.8826767252 Ry

     CASE: enthalpy_new < enthalpy_old

     new trust radius        =       0.5357229726 bohr
     new conv_thr            =            1.0E-12 Ry

     new unit-cell volume =    131.03545 a.u.^3 (    19.41745 Ang^3 )
     density =     25.77645 g/cm^3

CELL_PARAMETERS (alat=  9.11000000)
   0.659710586  -0.013609968   0.000000000
  -0.013609968   0.659710586  -0.000000000
   0.000000000   0.000000000   0.398392942

ATOMIC_POSITIONS (crystal)
Sn      -0.000290569  -0.000290569   0.000000000
Sn       0.499745407   0.499745407   0.500000000
O        0.818028853   0.181123872   0.500000000
O        0.181123872   0.818028853   0.500000000
O        0.317211595   0.317211595  -0.000000000
O        0.682180842   0.682180842  -0.000000000



     Writing output data file SnO2.save
     Check: negative starting charge=   -0.005668
     NEW-OLD atomic charge density approx. for the potential

     Check: negative/imaginary core charge=   -0.002636    0.000000
     Check: negative starting charge=   -0.000355

     negative rho (up, down):  4.465E-01 0.000E+00
     extrapolated charge   35.31704, renormalised to   52.00000

     total cpu time spent up to now is      912.9 secs

     Self-consistent Calculation

     iteration #  1     ecut=    12.00 Ry     beta= 0.70
     Davidson diagonalization with overlap
     ethr =  1.00E-06,  avg # of iterations = 11.4

     negative rho (up, down):  3.611E-03 0.000E+00

     total cpu time spent up to now is      938.3 secs

     total energy              =    -409.52256215 Ry
     Harris-Foulkes estimate   =    -415.46438912 Ry
     estimated scf accuracy    <       9.11368128 Ry

     iteration #  2     ecut=    12.00 Ry     beta= 0.70
     Davidson diagonalization with overlap
     ethr =  1.00E-02,  avg # of iterations =  3.7

     negative rho (up, down):  2.654E-04 0.000E+00

     total cpu time spent up to now is      950.0 secs

     total energy              =    -413.95659827 Ry
     Harris-Foulkes estimate   =    -415.69247639 Ry
     estimated scf accuracy    <       3.32245589 Ry

     iteration #  3     ecut=    12.00 Ry     beta= 0.70
     Davidson diagonalization with overlap
     ethr =  6.39E-03,  avg # of iterations =  3.4

     total cpu time spent up to now is      957.6 secs

     total energy              =    -414.39223439 Ry
     Harris-Foulkes estimate   =    -414.43660495 Ry
     estimated scf accuracy    <       0.09303823 Ry

     iteration #  4     ecut=    12.00 Ry     beta= 0.70
     Davidson diagonalization with overlap
     ethr =  1.79E-04,  avg # of iterations =  3.5

     total cpu time spent up to now is      966.4 secs

     total energy              =    -414.41394934 Ry
     Harris-Foulkes estimate   =    -414.41546422 Ry
     estimated scf accuracy    <       0.00321972 Ry

     iteration #  5     ecut=    12.00 Ry     beta= 0.70
     Davidson diagonalization with overlap
     ethr =  6.19E-06,  avg # of iterations =  2.6

     total cpu time spent up to now is      973.5 secs

     total energy              =    -414.41490200 Ry
     Harris-Foulkes estimate   =    -414.41509612 Ry
     estimated scf accuracy    <       0.00034378 Ry

     iteration #  6     ecut=    12.00 Ry     beta= 0.70
     Davidson diagonalization with overlap
     ethr =  6.61E-07,  avg # of iterations =  3.1

     total cpu time spent up to now is      981.5 secs

     total energy              =    -414.41497311 Ry
     Harris-Foulkes estimate   =    -414.41498800 Ry
     estimated scf accuracy    <       0.00002668 Ry

     iteration #  7     ecut=    12.00 Ry     beta= 0.70
     Davidson diagonalization with overlap
     ethr =  5.13E-08,  avg # of iterations =  3.2

     total cpu time spent up to now is      989.4 secs

     total energy              =    -414.41652184 Ry
     Harris-Foulkes estimate   =    -414.41653191 Ry
     estimated scf accuracy    <       0.00004818 Ry

     iteration #  8     ecut=    12.00 Ry     beta= 0.70
     Davidson diagonalization with overlap
     ethr =  5.13E-08,  avg # of iterations =  1.3

     total cpu time spent up to now is      994.6 secs

     total energy              =    -414.41651055 Ry
     Harris-Foulkes estimate   =    -414.41652247 Ry
     estimated scf accuracy    <       0.00002441 Ry

     iteration #  9     ecut=    12.00 Ry     beta= 0.70
     Davidson diagonalization with overlap
     ethr =  4.69E-08,  avg # of iterations =  2.9

     total cpu time spent up to now is     1002.2 secs

     total energy              =    -414.41651434 Ry
     Harris-Foulkes estimate   =    -414.41651438 Ry
     estimated scf accuracy    <       0.00000019 Ry

     iteration # 10     ecut=    12.00 Ry     beta= 0.70
     Davidson diagonalization with overlap
     ethr =  3.68E-10,  avg # of iterations =  3.4

     total cpu time spent up to now is     1011.7 secs

     total energy              =    -414.41675134 Ry
     Harris-Foulkes estimate   =    -414.41675133 Ry
     estimated scf accuracy    <       0.00000166 Ry

     iteration # 11     ecut=    12.00 Ry     beta= 0.70
     Davidson diagonalization with overlap
     ethr =  3.68E-10,  avg # of iterations =  1.0

     total cpu time spent up to now is     1016.7 secs

     total energy              =    -414.41675173 Ry
     Harris-Foulkes estimate   =    -414.41675134 Ry
     estimated scf accuracy    <       0.00000168 Ry

     iteration # 12     ecut=    12.00 Ry     beta= 0.70
     Davidson diagonalization with overlap
     ethr =  3.68E-10,  avg # of iterations =  2.5

     total cpu time spent up to now is     1025.3 secs

     total energy              =    -414.41675119 Ry
     Harris-Foulkes estimate   =    -414.41675176 Ry
     estimated scf accuracy    <       0.00000268 Ry

     iteration # 13     ecut=    12.00 Ry     beta= 0.70
     Davidson diagonalization with overlap
     ethr =  3.68E-10,  avg # of iterations =  2.8

     total cpu time spent up to now is     1034.4 secs

     total energy              =    -414.41675033 Ry
     Harris-Foulkes estimate   =    -414.41675123 Ry
     estimated scf accuracy    <       0.00000141 Ry

     iteration # 14     ecut=    12.00 Ry     beta= 0.70
     Davidson diagonalization with overlap
     ethr =  3.68E-10,  avg # of iterations =  3.6

     total cpu time spent up to now is     1044.9 secs

     total energy              =    -414.41675064 Ry
     Harris-Foulkes estimate   =    -414.41675066 Ry
     estimated scf accuracy    <       0.00000004 Ry

     iteration # 15     ecut=    12.00 Ry     beta= 0.70
     Davidson diagonalization with overlap
     ethr =  7.19E-11,  avg # of iterations =  3.3

     total cpu time spent up to now is     1054.1 secs

     total energy              =    -414.41675064 Ry
     Harris-Foulkes estimate   =    -414.41675066 Ry
     estimated scf accuracy    <       0.00000003 Ry

     iteration # 16     ecut=    12.00 Ry     beta= 0.70
     Davidson diagonalization with overlap
     ethr =  4.96E-11,  avg # of iterations =  3.0

     total cpu time spent up to now is     1062.0 secs

     total energy              =    -414.41675065 Ry
     Harris-Foulkes estimate   =    -414.41675065 Ry
     estimated scf accuracy    <          4.0E-10 Ry

     iteration # 17     ecut=    12.00 Ry     beta= 0.70
     Davidson diagonalization with overlap
     ethr =  7.76E-13,  avg # of iterations =  3.3

     total cpu time spent up to now is     1070.7 secs

     total energy              =    -414.41675065 Ry
     Harris-Foulkes estimate   =    -414.41675065 Ry
     estimated scf accuracy    <          3.7E-11 Ry

     iteration # 18     ecut=    12.00 Ry     beta= 0.70
     Davidson diagonalization with overlap
     ethr =  1.00E-13,  avg # of iterations =  3.2

     total cpu time spent up to now is     1079.4 secs

     total energy              =    -414.41675065 Ry
     Harris-Foulkes estimate   =    -414.41675065 Ry
     estimated scf accuracy    <          1.9E-11 Ry

     iteration # 19     ecut=    12.00 Ry     beta= 0.70
     Davidson diagonalization with overlap
     ethr =  1.00E-13,  avg # of iterations =  2.3

     total cpu time spent up to now is     1085.3 secs

     End of self-consistent calculation

     Number of k-points >= 100: set verbosity='high' to print the bands.

     highest occupied level (ev):    62.2604

!    total energy              =    -414.41675065 Ry
     Harris-Foulkes estimate   =    -414.41675065 Ry
     estimated scf accuracy    <          3.2E-14 Ry

     The total energy is the sum of the following terms:

     one-electron contribution =     134.44189567 Ry
     hartree contribution      =      46.48777600 Ry
     xc contribution           =    -131.31135335 Ry
     ewald contribution        =    -464.03506898 Ry

     convergence has been achieved in  19 iterations

     Forces acting on atoms (cartesian axes, Ry/au):

     atom    1 type  1   force =     0.00513249    0.00513249   -0.00000000
     atom    2 type  1   force =    -0.00223328   -0.00223328    0.00000000
     atom    3 type  2   force =    -2.68276602    2.67639223    0.00000000
     atom    4 type  2   force =     2.67639223   -2.68276602   -0.00000000
     atom    5 type  2   force =    -2.51086828   -2.51086828    0.00000000
     atom    6 type  2   force =     2.51434286    2.51434286   -0.00000000

     Total force =     7.346662     Total SCF correction =     0.000001


     Computing stress (Cartesian axis) and pressure

          total   stress  (Ry/bohr**3)                   (kbar)     P=20339.04
   0.04640183   0.03156579  -0.00000000       6825.94   4643.49     -0.00
   0.03156579   0.04640183   0.00000000       4643.49   6825.94      0.00
  -0.00000000   0.00000000   0.32198231         -0.00      0.00  47365.23


     number of scf cycles    =   6
     number of bfgs steps    =   4

     enthalpy old            =    -417.8826767252 Ry
     enthalpy new            =    -414.4167506458 Ry

     CASE: enthalpy_new > enthalpy_old

     new trust radius        =       0.1465789604 bohr
     new conv_thr            =            1.0E-12 Ry

     new unit-cell volume =    162.22022 a.u.^3 (    24.03856 Ang^3 )
     density =     20.82126 g/cm^3

CELL_PARAMETERS (alat=  9.11000000)
   0.672278364  -0.001828065   0.000000000
  -0.001828065   0.672278364  -0.000000000
   0.000000000   0.000000000   0.474738868

ATOMIC_POSITIONS (crystal)
Sn      -0.000267136  -0.000267136   0.000000000
Sn       0.499747785   0.499747785   0.500000000
O        0.806771634   0.192395198   0.500000000
O        0.192395198   0.806771634   0.500000000
O        0.306415197   0.306415197  -0.000000000
O        0.692937322   0.692937322  -0.000000000



     Writing output data file SnO2.save
     Check: negative starting charge=   -0.000355
     NEW-OLD atomic charge density approx. for the potential

     Check: negative/imaginary core charge=   -0.003745    0.000000
     Check: negative starting charge=   -0.004176

     negative rho (up, down):  3.623E-03 0.000E+00
     extrapolated charge   61.99574, renormalised to   52.00000

     total cpu time spent up to now is     1088.3 secs

     Self-consistent Calculation

     iteration #  1     ecut=    12.00 Ry     beta= 0.70
     Davidson diagonalization with overlap
     ethr =  1.00E-06,  avg # of iterations = 11.5

     negative rho (up, down):  6.026E-04 0.000E+00

     total cpu time spent up to now is     1114.9 secs

     total energy              =    -414.30239544 Ry
     Harris-Foulkes estimate   =    -421.38929997 Ry
     estimated scf accuracy    <       3.36684018 Ry

     iteration #  2     ecut=    12.00 Ry     beta= 0.70
     Davidson diagonalization with overlap
     ethr =  6.47E-03,  avg # of iterations =  4.5

     negative rho (up, down):  2.206E-04 0.000E+00

     total cpu time spent up to now is     1126.8 secs

     total energy              =    -418.52285147 Ry
     Harris-Foulkes estimate   =    -419.72701926 Ry
     estimated scf accuracy    <       2.55750526 Ry

     iteration #  3     ecut=    12.00 Ry     beta= 0.70
     Davidson diagonalization with overlap
     ethr =  4.92E-03,  avg # of iterations =  1.2

     total cpu time spent up to now is     1131.9 secs

     total energy              =    -418.32570376 Ry
     Harris-Foulkes estimate   =    -418.65606465 Ry
     estimated scf accuracy    <       0.52443193 Ry

     iteration #  4     ecut=    12.00 Ry     beta= 0.70
     Davidson diagonalization with overlap
     ethr =  1.01E-03,  avg # of iterations =  2.5

     total cpu time spent up to now is     1140.0 secs

     total energy              =    -418.43129412 Ry
     Harris-Foulkes estimate   =    -418.43203951 Ry
     estimated scf accuracy    <       0.00216160 Ry

     iteration #  5     ecut=    12.00 Ry     beta= 0.70
     Davidson diagonalization with overlap
     ethr =  4.16E-06,  avg # of iterations =  2.9

     total cpu time spent up to now is     1148.0 secs

     total energy              =    -418.43181542 Ry
     Harris-Foulkes estimate   =    -418.43186122 Ry
     estimated scf accuracy    <       0.00015884 Ry

     iteration #  6     ecut=    12.00 Ry     beta= 0.70
     Davidson diagonalization with overlap
     ethr =  3.05E-07,  avg # of iterations =  2.4

     total cpu time spent up to now is     1155.3 secs

     total energy              =    -418.43249120 Ry
     Harris-Foulkes estimate   =    -418.43256739 Ry
     estimated scf accuracy    <       0.00014167 Ry

     iteration #  7     ecut=    12.00 Ry     beta= 0.70
     Davidson diagonalization with overlap
     ethr =  2.72E-07,  avg # of iterations =  2.5

     total cpu time spent up to now is     1161.8 secs

     total energy              =    -418.43249909 Ry
     Harris-Foulkes estimate   =    -418.43250736 Ry
     estimated scf accuracy    <       0.00001225 Ry

     iteration #  8     ecut=    12.00 Ry     beta= 0.70
     Davidson diagonalization with overlap
     ethr =  2.36E-08,  avg # of iterations =  3.2

     total cpu time spent up to now is     1172.4 secs

     total energy              =    -418.43250224 Ry
     Harris-Foulkes estimate   =    -418.43250253 Ry
     estimated scf accuracy    <       0.00000059 Ry

     iteration #  9     ecut=    12.00 Ry     beta= 0.70
     Davidson diagonalization with overlap
     ethr =  1.13E-09,  avg # of iterations =  2.4

     total cpu time spent up to now is     1180.4 secs

     total energy              =    -418.43250227 Ry
     Harris-Foulkes estimate   =    -418.43250230 Ry
     estimated scf accuracy    <       0.00000005 Ry

     iteration # 10     ecut=    12.00 Ry     beta= 0.70
     Davidson diagonalization with overlap
     ethr =  9.11E-11,  avg # of iterations =  2.8

     total cpu time spent up to now is     1188.1 secs

     total energy              =    -418.43250228 Ry
     Harris-Foulkes estimate   =    -418.43250228 Ry
     estimated scf accuracy    <          3.3E-09 Ry

     iteration # 11     ecut=    12.00 Ry     beta= 0.70
     Davidson diagonalization with overlap
     ethr =  6.27E-12,  avg # of iterations =  3.0

     total cpu time spent up to now is     1196.6 secs

     total energy              =    -418.43250228 Ry
     Harris-Foulkes estimate   =    -418.43250228 Ry
     estimated scf accuracy    <          2.4E-11 Ry

     iteration # 12     ecut=    12.00 Ry     beta= 0.70
     Davidson diagonalization with overlap
     ethr =  1.00E-13,  avg # of iterations =  2.3

     total cpu time spent up to now is     1203.1 secs

     End of self-consistent calculation

     Number of k-points >= 100: set verbosity='high' to print the bands.

     highest occupied level (ev):    50.7118

!    total energy              =    -418.43250228 Ry
     Harris-Foulkes estimate   =    -418.43250228 Ry
     estimated scf accuracy    <          4.9E-13 Ry

     The total energy is the sum of the following terms:

     one-electron contribution =     109.89001176 Ry
     hartree contribution      =      42.46417952 Ry
     xc contribution           =    -126.42545402 Ry
     ewald contribution        =    -444.36123954 Ry

     convergence has been achieved in  12 iterations

     Forces acting on atoms (cartesian axes, Ry/au):

     atom    1 type  1   force =    -0.00052364   -0.00052364    0.00000000
     atom    2 type  1   force =    -0.00018955   -0.00018955    0.00000000
     atom    3 type  2   force =    -0.12091309    0.11637699    0.00000000
     atom    4 type  2   force =     0.11637699   -0.12091309   -0.00000000
     atom    5 type  2   force =    -0.05057597   -0.05057597    0.00000000
     atom    6 type  2   force =     0.05582527    0.05582527   -0.00000000

     Total force =     0.260147     Total SCF correction =     0.000002


     Computing stress (Cartesian axis) and pressure

          total   stress  (Ry/bohr**3)                   (kbar)     P=-3968.84
  -0.03168184   0.00339189   0.00000000      -4660.56    498.96      0.00
   0.00339189  -0.03168184  -0.00000000        498.96  -4660.56     -0.00
   0.00000000  -0.00000000  -0.01757514          0.00     -0.00  -2585.39


     number of scf cycles    =   7
     number of bfgs steps    =   4

     enthalpy old            =    -417.8826767252 Ry
     enthalpy new            =    -418.4325022799 Ry

     CASE: enthalpy_new < enthalpy_old

     new trust radius        =       0.1704795738 bohr
     new conv_thr            =            1.0E-12 Ry

     new unit-cell volume =    149.25158 a.u.^3 (    22.11680 Ang^3 )
     density =     22.63044 g/cm^3

CELL_PARAMETERS (alat=  9.11000000)
   0.647451792   0.035829335   0.000000000
   0.035829335   0.647451792  -0.000000000
   0.000000000  -0.000000000   0.472368525

ATOMIC_POSITIONS (crystal)
Sn      -0.000396970  -0.000396970   0.000000000
Sn       0.499741561   0.499741561   0.500000000
O        0.808989938   0.189818771   0.500000000
O        0.189818771   0.808989938   0.500000000
O        0.313270218   0.313270218  -0.000000000
O        0.686576482   0.686576482  -0.000000000



     Writing output data file SnO2.save
     Check: negative starting charge=   -0.004176
     NEW-OLD atomic charge density approx. for the potential

     Check: negative/imaginary core charge=   -0.003302    0.000000
     Check: negative starting charge=   -0.002172

     negative rho (up, down):  2.148E-03 0.000E+00
     extrapolated charge   47.48193, renormalised to   52.00000

     total cpu time spent up to now is     1206.0 secs

     Self-consistent Calculation

     iteration #  1     ecut=    12.00 Ry     beta= 0.70
     Davidson diagonalization with overlap
     ethr =  1.00E-06,  avg # of iterations =  7.4

     total cpu time spent up to now is     1225.1 secs

     total energy              =    -417.46427746 Ry
     Harris-Foulkes estimate   =    -416.76449944 Ry
     estimated scf accuracy    <       0.52151549 Ry

     iteration #  2     ecut=    12.00 Ry     beta= 0.70
     Davidson diagonalization with overlap
     ethr =  1.00E-03,  avg # of iterations =  3.7

     total cpu time spent up to now is     1234.8 secs

     total energy              =    -417.87611061 Ry
     Harris-Foulkes estimate   =    -418.00099164 Ry
     estimated scf accuracy    <       0.26275588 Ry

     iteration #  3     ecut=    12.00 Ry     beta= 0.70
     Davidson diagonalization with overlap
     ethr =  5.05E-04,  avg # of iterations =  2.9

     total cpu time spent up to now is     1242.2 secs

     total energy              =    -417.89242108 Ry
     Harris-Foulkes estimate   =    -417.90357027 Ry
     estimated scf accuracy    <       0.02187423 Ry

     iteration #  4     ecut=    12.00 Ry     beta= 0.70
     Davidson diagonalization with overlap
     ethr =  4.21E-05,  avg # of iterations =  3.2

     total cpu time spent up to now is     1252.5 secs

     total energy              =    -417.89577013 Ry
     Harris-Foulkes estimate   =    -417.89651393 Ry
     estimated scf accuracy    <       0.00120708 Ry

     iteration #  5     ecut=    12.00 Ry     beta= 0.70
     Davidson diagonalization with overlap
     ethr =  2.32E-06,  avg # of iterations =  3.1

     total cpu time spent up to now is     1260.6 secs

     total energy              =    -417.89610732 Ry
     Harris-Foulkes estimate   =    -417.89615467 Ry
     estimated scf accuracy    <       0.00009129 Ry

     iteration #  6     ecut=    12.00 Ry     beta= 0.70
     Davidson diagonalization with overlap
     ethr =  1.76E-07,  avg # of iterations =  2.9

     total cpu time spent up to now is     1268.3 secs

     total energy              =    -417.89611952 Ry
     Harris-Foulkes estimate   =    -417.89612590 Ry
     estimated scf accuracy    <       0.00001141 Ry

     iteration #  7     ecut=    12.00 Ry     beta= 0.70
     Davidson diagonalization with overlap
     ethr =  2.19E-08,  avg # of iterations =  2.6

     total cpu time spent up to now is     1275.4 secs

     total energy              =    -417.89612102 Ry
     Harris-Foulkes estimate   =    -417.89612132 Ry
     estimated scf accuracy    <       0.00000050 Ry

     iteration #  8     ecut=    12.00 Ry     beta= 0.70
     Davidson diagonalization with overlap
     ethr =  9.63E-10,  avg # of iterations =  3.5

     total cpu time spent up to now is     1284.6 secs

     total energy              =    -417.89612115 Ry
     Harris-Foulkes estimate   =    -417.89612116 Ry
     estimated scf accuracy    <       0.00000001 Ry

     iteration #  9     ecut=    12.00 Ry     beta= 0.70
     Davidson diagonalization with overlap
     ethr =  2.30E-11,  avg # of iterations =  2.7

     total cpu time spent up to now is     1291.4 secs

     total energy              =    -417.89612115 Ry
     Harris-Foulkes estimate   =    -417.89612115 Ry
     estimated scf accuracy    <          7.5E-10 Ry

     iteration # 10     ecut=    12.00 Ry     beta= 0.70
     Davidson diagonalization with overlap
     ethr =  1.44E-12,  avg # of iterations =  3.2

     total cpu time spent up to now is     1300.1 secs

     total energy              =    -417.89612115 Ry
     Harris-Foulkes estimate   =    -417.89612115 Ry
     estimated scf accuracy    <          2.8E-11 Ry

     iteration # 11     ecut=    12.00 Ry     beta= 0.70
     Davidson diagonalization with overlap
     ethr =  1.00E-13,  avg # of iterations =  2.3

     total cpu time spent up to now is     1307.7 secs

     End of self-consistent calculation

     Number of k-points >= 100: set verbosity='high' to print the bands.

     highest occupied level (ev):    55.7384

!    total energy              =    -417.89612115 Ry
     Harris-Foulkes estimate   =    -417.89612115 Ry
     estimated scf accuracy    <          4.8E-13 Ry

     The total energy is the sum of the following terms:

     one-electron contribution =     125.05794323 Ry
     hartree contribution      =      41.32254119 Ry
     xc contribution           =    -128.05150310 Ry
     ewald contribution        =    -456.22510247 Ry

     convergence has been achieved in  11 iterations

     Forces acting on atoms (cartesian axes, Ry/au):

     atom    1 type  1   force =     0.02247696    0.02247696   -0.00000000
     atom    2 type  1   force =     0.01313735    0.01313735   -0.00000000
     atom    3 type  2   force =     0.58460577   -0.59297515   -0.00000000
     atom    4 type  2   force =    -0.59297515    0.58460577    0.00000000
     atom    5 type  2   force =    -0.61222075   -0.61222075    0.00000000
     atom    6 type  2   force =     0.58497582    0.58497582   -0.00000000

     Total force =     1.679924     Total SCF correction =     0.000003


     Computing stress (Cartesian axis) and pressure

          total   stress  (Ry/bohr**3)                   (kbar)     P= 2690.83
   0.01721011  -0.07429899  -0.00000000       2531.69 -10929.76     -0.00
  -0.07429899   0.01721011   0.00000000     -10929.76   2531.69      0.00
  -0.00000000   0.00000000   0.02045537         -0.00      0.00   3009.09


     number of scf cycles    =   8
     number of bfgs steps    =   5

     enthalpy old            =    -418.4325022799 Ry
     enthalpy new            =    -417.8961211512 Ry

     CASE: enthalpy_new > enthalpy_old

     new trust radius        =       0.0403481137 bohr
     new conv_thr            =            1.0E-12 Ry

     new unit-cell volume =    159.34398 a.u.^3 (    23.61234 Ang^3 )
     density =     21.19709 g/cm^3

CELL_PARAMETERS (alat=  9.11000000)
   0.666696684   0.006638330   0.000000000
   0.006638330   0.666696684  -0.000000000
   0.000000000  -0.000000000   0.474205951

ATOMIC_POSITIONS (crystal)
Sn      -0.000296326  -0.000296326   0.000000000
Sn       0.499746385   0.499746385   0.500000000
O        0.807270368   0.191815948   0.500000000
O        0.191815948   0.807270368   0.500000000
O        0.307956390   0.307956390   0.000000000
O        0.691507234   0.691507234  -0.000000000



     Writing output data file SnO2.save
     Check: negative starting charge=   -0.002172
     NEW-OLD atomic charge density approx. for the potential

     Check: negative/imaginary core charge=   -0.003646    0.000000
     Check: negative starting charge=   -0.003678

[...]

     iteration #  5     ecut=    12.00 Ry     beta= 0.70
     Davidson diagonalization with overlap
     ethr =  7.75E-10,  avg # of iterations =  2.6

     total cpu time spent up to now is     1839.5 secs

     total energy              =    -418.57333652 Ry
     Harris-Foulkes estimate   =    -418.57333657 Ry
     estimated scf accuracy    <       0.00000009 Ry

     iteration #  6     ecut=    12.00 Ry     beta= 0.70
     Davidson diagonalization with overlap
     ethr =  1.74E-10,  avg # of iterations =  2.3

     total cpu time spent up to now is     1849.1 secs

     total energy              =    -418.57333654 Ry
     Harris-Foulkes estimate   =    -418.57333654 Ry
     estimated scf accuracy    <          2.9E-09 Ry

     iteration #  7     ecut=    12.00 Ry     beta= 0.70
     Davidson diagonalization with overlap
     ethr =  5.58E-12,  avg # of iterations =  2.5

     total cpu time spent up to now is     1856.6 secs

     total energy              =    -418.57333654 Ry
     Harris-Foulkes estimate   =    -418.57333654 Ry
     estimated scf accuracy    <          8.0E-11 Ry

     iteration #  8     ecut=    12.00 Ry     beta= 0.70
     Davidson diagonalization with overlap
     ethr =  1.54E-13,  avg # of iterations =  2.8

     total cpu time spent up to now is     1864.6 secs

     total energy              =    -418.57333654 Ry
     Harris-Foulkes estimate   =    -418.57333654 Ry
     estimated scf accuracy    <          1.1E-11 Ry

     iteration #  9     ecut=    12.00 Ry     beta= 0.70
     Davidson diagonalization with overlap
     ethr =  1.00E-13,  avg # of iterations =  2.0

     total cpu time spent up to now is     1870.2 secs

     End of self-consistent calculation

     Number of k-points >= 100: set verbosity='high' to print the bands.

     highest occupied level (ev):    53.5623

!    total energy              =    -418.57333654 Ry
     Harris-Foulkes estimate   =    -418.57333654 Ry
     estimated scf accuracy    <          6.1E-13 Ry

     The total energy is the sum of the following terms:

     one-electron contribution =     121.73839784 Ry
     hartree contribution      =      41.02935210 Ry
     xc contribution           =    -127.56027136 Ry
     ewald contribution        =    -453.78081513 Ry

     convergence has been achieved in   9 iterations

     Forces acting on atoms (cartesian axes, Ry/au):

     atom    1 type  1   force =     0.00853520    0.00853520   -0.00000000
     atom    2 type  1   force =     0.01242505    0.01242505   -0.00000000
     atom    3 type  2   force =    -0.01137158   -0.03462205    0.00000000
     atom    4 type  2   force =    -0.03462205   -0.01137158    0.00000000
     atom    5 type  2   force =     0.02753329    0.02753329   -0.00000000
     atom    6 type  2   force =    -0.00249990   -0.00249990    0.00000000

     Total force =     0.068111     Total SCF correction =     0.000004


     Computing stress (Cartesian axis) and pressure

          total   stress  (Ry/bohr**3)                   (kbar)     P=  168.84
   0.00067160  -0.00003515   0.00000000         98.80     -5.17      0.00
  -0.00003515   0.00067160  -0.00000000         -5.17     98.80     -0.00
  -0.00000000   0.00000000   0.00210015         -0.00      0.00    308.94


     number of scf cycles    =  14
     number of bfgs steps    =   8

     enthalpy old            =    -418.5726842278 Ry
     enthalpy new            =    -418.5733365422 Ry

     CASE: enthalpy_new < enthalpy_old

     new trust radius        =       0.0162923036 bohr
     new conv_thr            =            1.0E-12 Ry

     new unit-cell volume =    153.37666 a.u.^3 (    22.72808 Ang^3 )
     density =     22.02179 g/cm^3

CELL_PARAMETERS (alat=  9.11000000)
   0.653631729   0.000023225   0.000000000
   0.000023225   0.653631729   0.000000000
   0.000000000  -0.000000000   0.474829721

ATOMIC_POSITIONS (crystal)
Sn       0.000903569   0.000903569  -0.000000000
Sn       0.501027779   0.501027779   0.500000000
O        0.806511894   0.188193654   0.500000000
O        0.188193654   0.806511894   0.500000000
O        0.309964155   0.309964155   0.000000000
O        0.691398949   0.691398949   0.000000000



     Writing output data file SnO2.save
     Check: negative starting charge=   -0.002675
     NEW-OLD atomic charge density approx. for the potential

     Check: negative/imaginary core charge=   -0.003423    0.000000
     Check: negative starting charge=   -0.002672
     extrapolated charge   52.06331, renormalised to   52.00000

     total cpu time spent up to now is     1873.2 secs

     Self-consistent Calculation

     iteration #  1     ecut=    12.00 Ry     beta= 0.70
     Davidson diagonalization with overlap
     ethr =  1.00E-06,  avg # of iterations =  5.6

     total cpu time spent up to now is     1886.6 secs

     total energy              =    -418.57577622 Ry
     Harris-Foulkes estimate   =    -418.59448209 Ry
     estimated scf accuracy    <       0.00095098 Ry

     iteration #  2     ecut=    12.00 Ry     beta= 0.70
     Davidson diagonalization with overlap
     ethr =  1.83E-06,  avg # of iterations =  2.7

     total cpu time spent up to now is     1894.8 secs

     total energy              =    -418.57602508 Ry
     Harris-Foulkes estimate   =    -418.57607420 Ry
     estimated scf accuracy    <       0.00013067 Ry

     iteration #  3     ecut=    12.00 Ry     beta= 0.70
     Davidson diagonalization with overlap
     ethr =  2.51E-07,  avg # of iterations =  2.3

     total cpu time spent up to now is     1902.4 secs

     total energy              =    -418.57604992 Ry
     Harris-Foulkes estimate   =    -418.57604875 Ry
     estimated scf accuracy    <       0.00000840 Ry

     iteration #  4     ecut=    12.00 Ry     beta= 0.70
     Davidson diagonalization with overlap
     ethr =  1.62E-08,  avg # of iterations =  2.5

     total cpu time spent up to now is     1910.1 secs

     total energy              =    -418.57605090 Ry
     Harris-Foulkes estimate   =    -418.57605179 Ry
     estimated scf accuracy    <       0.00000161 Ry

     iteration #  5     ecut=    12.00 Ry     beta= 0.70
     Davidson diagonalization with overlap
     ethr =  3.09E-09,  avg # of iterations =  2.2

     total cpu time spent up to now is     1919.1 secs

     total energy              =    -418.57605128 Ry
     Harris-Foulkes estimate   =    -418.57605131 Ry
     estimated scf accuracy    <       0.00000007 Ry

     iteration #  6     ecut=    12.00 Ry     beta= 0.70
     Davidson diagonalization with overlap
     ethr =  1.42E-10,  avg # of iterations =  2.5

     total cpu time spent up to now is     1926.9 secs

     total energy              =    -418.57605129 Ry
     Harris-Foulkes estimate   =    -418.57605130 Ry
     estimated scf accuracy    <          4.3E-09 Ry

     iteration #  7     ecut=    12.00 Ry     beta= 0.70
     Davidson diagonalization with overlap
     ethr =  8.28E-12,  avg # of iterations =  2.2

     total cpu time spent up to now is     1934.1 secs

     total energy              =    -418.57605130 Ry
     Harris-Foulkes estimate   =    -418.57605130 Ry
     estimated scf accuracy    <          1.0E-10 Ry

     iteration #  8     ecut=    12.00 Ry     beta= 0.70
     Davidson diagonalization with overlap
     ethr =  1.93E-13,  avg # of iterations =  3.1

     total cpu time spent up to now is     1943.7 secs

     total energy              =    -418.57605130 Ry
     Harris-Foulkes estimate   =    -418.57605130 Ry
     estimated scf accuracy    <          2.4E-11 Ry

     iteration #  9     ecut=    12.00 Ry     beta= 0.70
     Davidson diagonalization with overlap
     ethr =  1.00E-13,  avg # of iterations =  2.2

     total cpu time spent up to now is     1950.7 secs

     End of self-consistent calculation

     Number of k-points >= 100: set verbosity='high' to print the bands.

     highest occupied level (ev):    53.5009

!    total energy              =    -418.57605130 Ry
     Harris-Foulkes estimate   =    -418.57605130 Ry
     estimated scf accuracy    <          6.5E-13 Ry

     The total energy is the sum of the following terms:

     one-electron contribution =     121.71259154 Ry
     hartree contribution      =      40.96638248 Ry
     xc contribution           =    -127.52096815 Ry
     ewald contribution        =    -453.73405716 Ry

     convergence has been achieved in   9 iterations

     Forces acting on atoms (cartesian axes, Ry/au):

     atom    1 type  1   force =     0.07068264    0.07068264   -0.00000000
     atom    2 type  1   force =     0.04422616    0.04422616   -0.00000000
     atom    3 type  2   force =    -0.06088323   -0.05122230    0.00000000
     atom    4 type  2   force =    -0.05122230   -0.06088323    0.00000000
     atom    5 type  2   force =    -0.01621173   -0.01621173    0.00000000
     atom    6 type  2   force =     0.01340846    0.01340846   -0.00000000

     Total force =     0.165681     Total SCF correction =     0.000002


     Computing stress (Cartesian axis) and pressure

          total   stress  (Ry/bohr**3)                   (kbar)     P=   29.75
   0.00015521  -0.00006581  -0.00000000         22.83     -9.68     -0.00
  -0.00006581   0.00015521   0.00000000         -9.68     22.83      0.00
  -0.00000000   0.00000000   0.00029628         -0.00      0.00     43.58


     number of scf cycles    =  15
     number of bfgs steps    =   9

     enthalpy old            =    -418.5733365422 Ry
     enthalpy new            =    -418.5760512956 Ry

     CASE: enthalpy_new < enthalpy_old


     WARNING: bfgs curvature condition failed, Theta= 0.947
     new trust radius        =       0.0244040226 bohr
     new conv_thr            =            1.0E-12 Ry

     new unit-cell volume =    153.62073 a.u.^3 (    22.76424 Ang^3 )
     density =     21.98681 g/cm^3

CELL_PARAMETERS (alat=  9.11000000)
   0.652371948  -0.000017494   0.000000000
  -0.000017494   0.652371948   0.000000000
   0.000000000  -0.000000000   0.477423885

ATOMIC_POSITIONS (crystal)
Sn       0.002019262   0.002019262  -0.000000000
Sn       0.502441620   0.502441620   0.500000000
O        0.805354740   0.184322458   0.500000000
O        0.184322458   0.805354740   0.500000000
O        0.312862029   0.312862029  -0.000000000
O        0.690999892   0.690999892   0.000000000



     Writing output data file SnO2.save
     Check: negative starting charge=   -0.002672
     NEW-OLD atomic charge density approx. for the potential

     Check: negative/imaginary core charge=   -0.003420    0.000000
     Check: negative starting charge=   -0.002631
     extrapolated charge   52.08261, renormalised to   52.00000

     total cpu time spent up to now is     1953.7 secs

     Self-consistent Calculation

     iteration #  1     ecut=    12.00 Ry     beta= 0.70
     Davidson diagonalization with overlap
     ethr =  1.00E-06,  avg # of iterations =  6.2

     total cpu time spent up to now is     1967.6 secs

     total energy              =    -418.58018224 Ry
     Harris-Foulkes estimate   =    -418.60523524 Ry
     estimated scf accuracy    <       0.00242001 Ry

     iteration #  2     ecut=    12.00 Ry     beta= 0.70
     Davidson diagonalization with overlap
     ethr =  4.65E-06,  avg # of iterations =  2.5

     total cpu time spent up to now is     1975.7 secs

     total energy              =    -418.58077667 Ry
     Harris-Foulkes estimate   =    -418.58089270 Ry
     estimated scf accuracy    <       0.00031478 Ry

     iteration #  3     ecut=    12.00 Ry     beta= 0.70
     Davidson diagonalization with overlap
     ethr =  6.05E-07,  avg # of iterations =  2.2

     total cpu time spent up to now is     1985.0 secs

     total energy              =    -418.58083963 Ry
     Harris-Foulkes estimate   =    -418.58083692 Ry
     estimated scf accuracy    <       0.00002158 Ry

     iteration #  4     ecut=    12.00 Ry     beta= 0.70
     Davidson diagonalization with overlap
     ethr =  4.15E-08,  avg # of iterations =  2.4

     total cpu time spent up to now is     1994.0 secs

     total energy              =    -418.58084219 Ry
     Harris-Foulkes estimate   =    -418.58084443 Ry
     estimated scf accuracy    <       0.00000403 Ry

     iteration #  5     ecut=    12.00 Ry     beta= 0.70
     Davidson diagonalization with overlap
     ethr =  7.76E-09,  avg # of iterations =  2.2

     total cpu time spent up to now is     2001.3 secs

     total energy              =    -418.58084314 Ry
     Harris-Foulkes estimate   =    -418.58084321 Ry
     estimated scf accuracy    <       0.00000015 Ry

     iteration #  6     ecut=    12.00 Ry     beta= 0.70
     Davidson diagonalization with overlap
     ethr =  2.91E-10,  avg # of iterations =  2.5

     total cpu time spent up to now is     2009.0 secs

     total energy              =    -418.58084318 Ry
     Harris-Foulkes estimate   =    -418.58084318 Ry
     estimated scf accuracy    <          7.3E-09 Ry

     iteration #  7     ecut=    12.00 Ry     beta= 0.70
     Davidson diagonalization with overlap
     ethr =  1.41E-11,  avg # of iterations =  2.2

     total cpu time spent up to now is     2016.7 secs

     total energy              =    -418.58084318 Ry
     Harris-Foulkes estimate   =    -418.58084318 Ry
     estimated scf accuracy    <          1.6E-10 Ry

     iteration #  8     ecut=    12.00 Ry     beta= 0.70
     Davidson diagonalization with overlap
     ethr =  3.05E-13,  avg # of iterations =  3.1

     total cpu time spent up to now is     2024.6 secs

     total energy              =    -418.58084318 Ry
     Harris-Foulkes estimate   =    -418.58084318 Ry
     estimated scf accuracy    <          3.7E-11 Ry

     iteration #  9     ecut=    12.00 Ry     beta= 0.70
     Davidson diagonalization with overlap
     ethr =  1.00E-13,  avg # of iterations =  2.7

     total cpu time spent up to now is     2031.6 secs

     total energy              =    -418.58084318 Ry
     Harris-Foulkes estimate   =    -418.58084318 Ry
     estimated scf accuracy    <          1.4E-12 Ry

     iteration # 10     ecut=    12.00 Ry     beta= 0.70
     Davidson diagonalization with overlap
     ethr =  1.00E-13,  avg # of iterations =  1.0

     total cpu time spent up to now is     2036.4 secs

     End of self-consistent calculation

     Number of k-points >= 100: set verbosity='high' to print the bands.

     highest occupied level (ev):    53.4220

!    total energy              =    -418.58084318 Ry
     Harris-Foulkes estimate   =    -418.58084318 Ry
     estimated scf accuracy    <          2.0E-14 Ry

     The total energy is the sum of the following terms:

     one-electron contribution =     121.71953540 Ry
     hartree contribution      =      40.86772167 Ry
     xc contribution           =    -127.46642210 Ry
     ewald contribution        =    -453.70167814 Ry

     convergence has been achieved in  10 iterations

     Forces acting on atoms (cartesian axes, Ry/au):

     atom    1 type  1   force =     0.16810696    0.16810696   -0.00000000
     atom    2 type  1   force =     0.09565132    0.09565132   -0.00000000
     atom    3 type  2   force =    -0.14189779   -0.08114908    0.00000000
     atom    4 type  2   force =    -0.08114908   -0.14189779    0.00000000
     atom    5 type  2   force =    -0.07721361   -0.07721361    0.00000000
     atom    6 type  2   force =     0.03650220    0.03650220   -0.00000000

     Total force =     0.377951     Total SCF correction =     0.000000


     Computing stress (Cartesian axis) and pressure

          total   stress  (Ry/bohr**3)                   (kbar)     P= -162.01
  -0.00052264  -0.00004392   0.00000000        -76.88     -6.46      0.00
  -0.00004392  -0.00052264   0.00000000         -6.46    -76.88      0.00
   0.00000000   0.00000000  -0.00225867          0.00      0.00   -332.26


     number of scf cycles    =  16
     number of bfgs steps    =  10

     enthalpy old            =    -418.5760512956 Ry
     enthalpy new            =    -418.5808431810 Ry

     CASE: enthalpy_new < enthalpy_old


     WARNING: bfgs curvature condition failed, Theta= 0.044
     new trust radius        =       0.0365332032 bohr
     new conv_thr            =            1.0E-12 Ry

     new unit-cell volume =    153.97658 a.u.^3 (    22.81697 Ang^3 )
     density =     21.93599 g/cm^3

CELL_PARAMETERS (alat=  9.11000000)
   0.650483343  -0.000078650   0.000000000
  -0.000078650   0.650483343   0.000000000
   0.000000000  -0.000000000   0.481312545

ATOMIC_POSITIONS (crystal)
Sn       0.003693870   0.003693870   0.000000000
Sn       0.504563437   0.504563437   0.500000000
O        0.803615413   0.178515768   0.500000000
O        0.178515768   0.803615413   0.500000000
O        0.317208840   0.317208840  -0.000000000
O        0.690402673   0.690402673   0.000000000



     Writing output data file SnO2.save
     Check: negative starting charge=   -0.002631
     NEW-OLD atomic charge density approx. for the potential

     Check: negative/imaginary core charge=   -0.003419    0.000000
     Check: negative starting charge=   -0.002498
     extrapolated charge   52.12017, renormalised to   52.00000

     total cpu time spent up to now is     2039.4 secs

     Self-consistent Calculation

     iteration #  1     ecut=    12.00 Ry     beta= 0.70
     Davidson diagonalization with overlap
     ethr =  1.00E-06,  avg # of iterations =  6.8

     total cpu time spent up to now is     2054.4 secs

     total energy              =    -418.58755147 Ry
     Harris-Foulkes estimate   =    -418.62519473 Ry
     estimated scf accuracy    <       0.00534494 Ry

     iteration #  2     ecut=    12.00 Ry     beta= 0.70
     Davidson diagonalization with overlap
     ethr =  1.03E-05,  avg # of iterations =  2.5

     total cpu time spent up to now is     2062.8 secs

     total energy              =    -418.58883993 Ry
     Harris-Foulkes estimate   =    -418.58907763 Ry
     estimated scf accuracy    <       0.00066888 Ry

     iteration #  3     ecut=    12.00 Ry     beta= 0.70
     Davidson diagonalization with overlap
     ethr =  1.29E-06,  avg # of iterations =  2.2

     total cpu time spent up to now is     2070.4 secs

     total energy              =    -418.58897278 Ry
     Harris-Foulkes estimate   =    -418.58896737 Ry
     estimated scf accuracy    <       0.00004733 Ry

     iteration #  4     ecut=    12.00 Ry     beta= 0.70
     Davidson diagonalization with overlap
     ethr =  9.10E-08,  avg # of iterations =  2.4

     total cpu time spent up to now is     2078.6 secs

     total energy              =    -418.58897847 Ry
     Harris-Foulkes estimate   =    -418.58898335 Ry
     estimated scf accuracy    <       0.00000880 Ry

     iteration #  5     ecut=    12.00 Ry     beta= 0.70
     Davidson diagonalization with overlap
     ethr =  1.69E-08,  avg # of iterations =  2.2

     total cpu time spent up to now is     2086.1 secs

     total energy              =    -418.58898055 Ry
     Harris-Foulkes estimate   =    -418.58898070 Ry
     estimated scf accuracy    <       0.00000032 Ry

     iteration #  6     ecut=    12.00 Ry     beta= 0.70
     Davidson diagonalization with overlap
     ethr =  6.12E-10,  avg # of iterations =  2.5

     total cpu time spent up to now is     2094.2 secs

     total energy              =    -418.58898063 Ry
     Harris-Foulkes estimate   =    -418.58898063 Ry
     estimated scf accuracy    <       0.00000002 Ry

     iteration #  7     ecut=    12.00 Ry     beta= 0.70
     Davidson diagonalization with overlap
     ethr =  2.96E-11,  avg # of iterations =  2.2

     total cpu time spent up to now is     2101.2 secs

     total energy              =    -418.58898063 Ry
     Harris-Foulkes estimate   =    -418.58898063 Ry
     estimated scf accuracy    <          3.0E-10 Ry

     iteration #  8     ecut=    12.00 Ry     beta= 0.70
     Davidson diagonalization with overlap
