
     Program PWSCF v.6.2.2 starts on  8Apr2018 at 20:58:12 

     This program is part of the open-source Quantum ESPRESSO suite
     for quantum simulation of materials; please cite
         "P. Giannozzi et al., J. Phys.:Condens. Matter 21 395502 (2009);
         "P. Giannozzi et al., J. Phys.:Condens. Matter 29 465901 (2017);
          URL http://www.quantum-espresso.org", 
     in publications or presentations arising from this work. More details at
     http://www.quantum-espresso.org/quote

     Parallel version (MPI), running on     2 processors

     MPI processes distributed on     1 nodes
     R & G space division:  proc/nbgrp/npool/nimage =       2
     Reading input from Conv_acell-ecut.in

     Current dimensions of program PWSCF are:
     Max number of different atomic species (ntypx) = 10
     Max number of k-points (npk) =  40000
     Max angular momentum in pseudopotentials (lmaxx) =  3

     Subspace diagonalization in iterative solution of the eigenvalue problem:
     a serial algorithm will be used

 
     Parallelization info
     --------------------
     sticks:   dense  smooth     PW     G-vecs:    dense   smooth      PW
     Min         396     396    124                 5618     5618     978
     Max         397     397    125                 5619     5619     979
     Sum         793     793    249                11237    11237    1957
 


     bravais-lattice index     =            6
     lattice parameter (alat)  =       9.1100  a.u.
     unit-cell volume          =     506.5589 (a.u.)^3
     number of atoms/cell      =            6
     number of atomic types    =            2
     number of electrons       =        52.00
     number of Kohn-Sham states=           26
     kinetic-energy cutoff     =      30.0000  Ry
     charge density cutoff     =     120.0000  Ry
     convergence threshold     =      1.0E-12
     mixing beta               =       0.7000
     number of iterations used =            8  plain     mixing
     Exchange-correlation      = PBE ( 1  4  3  4 0 0)
     nstep                     =           50


     celldm(1)=   9.110000  celldm(2)=   0.000000  celldm(3)=   0.670000
     celldm(4)=   0.000000  celldm(5)=   0.000000  celldm(6)=   0.000000

     crystal axes: (cart. coord. in units of alat)
               a(1) = (   1.000000   0.000000   0.000000 )  
               a(2) = (   0.000000   1.000000   0.000000 )  
               a(3) = (   0.000000   0.000000   0.670000 )  

     reciprocal axes: (cart. coord. in units 2 pi/alat)
               b(1) = (  1.000000  0.000000  0.000000 )  
               b(2) = (  0.000000  1.000000  0.000000 )  
               b(3) = (  0.000000  0.000000  1.492537 )  


     PseudoPot. # 1 for Sn read from file:
     ../../Pseudo_potentials/Sn_PBE.upf
     MD5 check sum: 78e6386ae56e929f0568ae8bf606a80c
     Pseudo is Norm-conserving + core correction, Zval = 14.0
     Generated using ONCVPSP code by D. R. Hamann
     Using radial grid of 1628 points,  6 beta functions with: 
                l(1) =   0
                l(2) =   0
                l(3) =   1
                l(4) =   1
                l(5) =   2
                l(6) =   2

     PseudoPot. # 2 for O  read from file:
     ../../Pseudo_potentials/O_PBE.upf
     MD5 check sum: 3e3f909f7470e8921608ab6b1f57bbae
     Pseudo is Norm-conserving + core correction, Zval =  6.0
     Generated using ONCVPSP code by D. R. Hamann
     Using radial grid of  936 points,  5 beta functions with: 
                l(1) =   0
                l(2) =   0
                l(3) =   1
                l(4) =   1
                l(5) =   2

     atomic species   valence    mass     pseudopotential
        Sn            14.00   118.71000     Sn( 1.00)
        O              6.00    15.99900     O ( 1.00)

      4 Sym. Ops. (no inversion) found



   Cartesian axes

     site n.     atom                  positions (alat units)
         1           Sn  tau(   1) = (   0.0000000   0.0000000   0.0000000  )
         2           Sn  tau(   2) = (   0.5000000   0.5000000   0.3350000  )
         3           O   tau(   3) = (   0.8060000   0.1930000   0.3350000  )
         4           O   tau(   4) = (   0.1930000   0.8060000   0.3350000  )
         5           O   tau(   5) = (   0.3060000   0.3060000   0.0000000  )
         6           O   tau(   6) = (   0.6930000   0.6930000   0.0000000  )

     number of k points=   301

     Number of k-points >= 100: set verbosity='high' to print them.

     Dense  grid:    11237 G-vectors     FFT dimensions: (  32,  32,  24)

     Estimated max dynamical RAM per process >      96.39 MB

     Estimated total dynamical RAM >     192.77 MB

     Check: negative/imaginary core charge=   -0.001432    0.000000

     Initial potential from superposition of free atoms
     Check: negative starting charge=   -0.003011

     starting charge   51.99690, renormalised to   52.00000

     negative rho (up, down):  3.011E-03 0.000E+00
     Starting wfc are   34 randomized atomic wfcs

     total cpu time spent up to now is       10.5 secs

     Self-consistent Calculation

     iteration #  1     ecut=    30.00 Ry     beta= 0.70
     Davidson diagonalization with overlap
     ethr =  1.00E-02,  avg # of iterations =  2.0

     negative rho (up, down):  8.932E-04 0.000E+00

     total cpu time spent up to now is       38.8 secs

     total energy              =    -437.94699501 Ry
     Harris-Foulkes estimate   =    -439.32117636 Ry
     estimated scf accuracy    <       1.94001291 Ry

     iteration #  2     ecut=    30.00 Ry     beta= 0.70
     Davidson diagonalization with overlap
     ethr =  3.73E-03,  avg # of iterations =  3.0

     negative rho (up, down):  3.981E-04 0.000E+00

     total cpu time spent up to now is       70.5 secs

     total energy              =    -438.29338811 Ry
     Harris-Foulkes estimate   =    -438.58223196 Ry
     estimated scf accuracy    <       0.45661415 Ry

     iteration #  3     ecut=    30.00 Ry     beta= 0.70
     Davidson diagonalization with overlap
     ethr =  8.78E-04,  avg # of iterations =  3.1

     negative rho (up, down):  1.101E-04 0.000E+00

     total cpu time spent up to now is       99.9 secs

     total energy              =    -438.42431896 Ry
     Harris-Foulkes estimate   =    -438.46166972 Ry
     estimated scf accuracy    <       0.08317850 Ry

     iteration #  4     ecut=    30.00 Ry     beta= 0.70
     Davidson diagonalization with overlap
     ethr =  1.60E-04,  avg # of iterations =  2.1

     total cpu time spent up to now is      126.3 secs

     total energy              =    -438.43885270 Ry
     Harris-Foulkes estimate   =    -438.43895970 Ry
     estimated scf accuracy    <       0.00120177 Ry

     iteration #  5     ecut=    30.00 Ry     beta= 0.70
     Davidson diagonalization with overlap
     ethr =  2.31E-06,  avg # of iterations =  3.1

     total cpu time spent up to now is      152.5 secs

     total energy              =    -438.43909380 Ry
     Harris-Foulkes estimate   =    -438.43910668 Ry
     estimated scf accuracy    <       0.00003092 Ry

     iteration #  6     ecut=    30.00 Ry     beta= 0.70
     Davidson diagonalization with overlap
     ethr =  5.95E-08,  avg # of iterations =  2.6

     total cpu time spent up to now is      182.6 secs

     total energy              =    -438.43931688 Ry
     Harris-Foulkes estimate   =    -438.43931871 Ry
     estimated scf accuracy    <       0.00000465 Ry

     iteration #  7     ecut=    30.00 Ry     beta= 0.70
     Davidson diagonalization with overlap
     ethr =  8.95E-09,  avg # of iterations =  2.9

     total cpu time spent up to now is      209.3 secs

     total energy              =    -438.43931727 Ry
     Harris-Foulkes estimate   =    -438.43931762 Ry
     estimated scf accuracy    <       0.00000107 Ry

     iteration #  8     ecut=    30.00 Ry     beta= 0.70
     Davidson diagonalization with overlap
     ethr =  2.07E-09,  avg # of iterations =  2.6

     total cpu time spent up to now is      233.8 secs

     total energy              =    -438.43931721 Ry
     Harris-Foulkes estimate   =    -438.43931738 Ry
     estimated scf accuracy    <       0.00000033 Ry

     iteration #  9     ecut=    30.00 Ry     beta= 0.70
     Davidson diagonalization with overlap
     ethr =  6.32E-10,  avg # of iterations =  2.7

     total cpu time spent up to now is      261.1 secs

     total energy              =    -438.43931726 Ry
     Harris-Foulkes estimate   =    -438.43931726 Ry
     estimated scf accuracy    <       0.00000002 Ry

     iteration # 10     ecut=    30.00 Ry     beta= 0.70
     Davidson diagonalization with overlap
     ethr =  3.50E-11,  avg # of iterations =  2.3

     total cpu time spent up to now is      286.4 secs

     total energy              =    -438.43931726 Ry
     Harris-Foulkes estimate   =    -438.43931726 Ry
     estimated scf accuracy    <          3.1E-09 Ry

     iteration # 11     ecut=    30.00 Ry     beta= 0.70
     Davidson diagonalization with overlap
     ethr =  5.87E-12,  avg # of iterations =  2.9

     total cpu time spent up to now is      314.0 secs

     total energy              =    -438.43931726 Ry
     Harris-Foulkes estimate   =    -438.43931726 Ry
     estimated scf accuracy    <          1.1E-10 Ry

     iteration # 12     ecut=    30.00 Ry     beta= 0.70
     Davidson diagonalization with overlap
     ethr =  2.02E-13,  avg # of iterations =  3.1

     total cpu time spent up to now is      343.9 secs

     total energy              =    -438.43931726 Ry
     Harris-Foulkes estimate   =    -438.43931726 Ry
     estimated scf accuracy    <          1.9E-11 Ry

     iteration # 13     ecut=    30.00 Ry     beta= 0.70
     Davidson diagonalization with overlap
     ethr =  1.00E-13,  avg # of iterations =  2.0

     total cpu time spent up to now is      367.1 secs

     End of self-consistent calculation

     Number of k-points >= 100: set verbosity='high' to print the bands.

     highest occupied level (ev):     9.6226

!    total energy              =    -438.43931726 Ry
     Harris-Foulkes estimate   =    -438.43931726 Ry
     estimated scf accuracy    <          8.5E-13 Ry

     The total energy is the sum of the following terms:

     one-electron contribution =    -108.90834852 Ry
     hartree contribution      =      92.08675573 Ry
     xc contribution           =    -119.13638857 Ry
     ewald contribution        =    -302.48133591 Ry

     convergence has been achieved in  13 iterations

     Forces acting on atoms (cartesian axes, Ry/au):

     atom    1 type  1   force =    -0.00018173   -0.00018173    0.00000000
     atom    2 type  1   force =    -0.00034375   -0.00034375    0.00000000
     atom    3 type  2   force =    -0.03630879    0.03581371    0.00000000
     atom    4 type  2   force =     0.03581371   -0.03630879    0.00000000
     atom    5 type  2   force =    -0.03557235   -0.03557235    0.00000000
     atom    6 type  2   force =     0.03659291    0.03659291    0.00000000

     Total force =     0.102035     Total SCF correction =     0.000003


     Computing stress (Cartesian axis) and pressure

          total   stress  (Ry/bohr**3)                   (kbar)     P=-6911.02
  -0.04722174   0.00000021  -0.00000000      -6946.56      0.03     -0.00
   0.00000021  -0.04722174   0.00000000          0.03  -6946.56      0.00
   0.00000000   0.00000000  -0.04649707          0.00      0.00  -6839.95


     BFGS Geometry Optimization

     number of scf cycles    =   1
     number of bfgs steps    =   0

     enthalpy new            =    -438.4393172589 Ry

     new trust radius        =       0.5000000000 bohr
     new conv_thr            =            1.0E-12 Ry

     new unit-cell volume =    356.49548 a.u.^3 (    52.82718 Ang^3 )
     density =      9.47454 g/cm^3

CELL_PARAMETERS (alat=  9.11000000)
   0.888922769   0.000000000   0.000000000
   0.000000000   0.888922769   0.000000000
   0.000000000   0.000000000   0.596720339

ATOMIC_POSITIONS (crystal)
Sn      -0.000001877  -0.000001877   0.000000000
Sn       0.499996450   0.499996450   0.500000000
O        0.805624996   0.193369891   0.500000000
O        0.193369891   0.805624996   0.500000000
O        0.305632602   0.305632602   0.000000000
O        0.693377939   0.693377939   0.000000000



     Writing output data file SnO2.save
     Check: negative starting charge=   -0.003011
     NEW-OLD atomic charge density approx. for the potential

     Check: negative/imaginary core charge=   -0.000745    0.000000
     Check: negative starting charge=   -0.000242

     negative rho (up, down):  5.644E-01 0.000E+00
     extrapolated charge   30.11240, renormalised to   52.00000

     total cpu time spent up to now is      379.0 secs

     Self-consistent Calculation

     iteration #  1     ecut=    30.00 Ry     beta= 0.70
     Davidson diagonalization with overlap
     c_bands:  2 eigenvalues not converged
     c_bands:  3 eigenvalues not converged
     c_bands:  2 eigenvalues not converged
     c_bands:  2 eigenvalues not converged
     c_bands:  2 eigenvalues not converged
     c_bands:  2 eigenvalues not converged
     c_bands:  2 eigenvalues not converged
     c_bands:  3 eigenvalues not converged
     c_bands:  2 eigenvalues not converged
     c_bands:  2 eigenvalues not converged
     c_bands:  2 eigenvalues not converged
     c_bands:  2 eigenvalues not converged
     c_bands:  2 eigenvalues not converged
     c_bands:  1 eigenvalues not converged
     c_bands:  2 eigenvalues not converged
     c_bands:  2 eigenvalues not converged
     c_bands:  2 eigenvalues not converged
     c_bands:  2 eigenvalues not converged
     c_bands:  2 eigenvalues not converged
     c_bands:  2 eigenvalues not converged
     c_bands:  1 eigenvalues not converged
     c_bands:  2 eigenvalues not converged
     c_bands:  2 eigenvalues not converged
     c_bands:  3 eigenvalues not converged
     c_bands:  1 eigenvalues not converged
     c_bands:  3 eigenvalues not converged
     c_bands:  2 eigenvalues not converged
     c_bands:  2 eigenvalues not converged
     c_bands:  1 eigenvalues not converged
     c_bands:  2 eigenvalues not converged
     c_bands:  2 eigenvalues not converged
     c_bands:  2 eigenvalues not converged
     c_bands:  1 eigenvalues not converged
     c_bands:  2 eigenvalues not converged
     c_bands:  2 eigenvalues not converged
     c_bands:  2 eigenvalues not converged
     c_bands:  2 eigenvalues not converged
     c_bands:  2 eigenvalues not converged
     c_bands:  1 eigenvalues not converged
     c_bands:  1 eigenvalues not converged
     c_bands:  1 eigenvalues not converged
     c_bands:  2 eigenvalues not converged
     c_bands:  2 eigenvalues not converged
     c_bands:  1 eigenvalues not converged
     c_bands:  2 eigenvalues not converged
     c_bands:  1 eigenvalues not converged
     c_bands:  2 eigenvalues not converged
     c_bands:  2 eigenvalues not converged
     c_bands:  1 eigenvalues not converged
     c_bands:  2 eigenvalues not converged
     c_bands:  1 eigenvalues not converged
     c_bands:  2 eigenvalues not converged
     c_bands:  2 eigenvalues not converged
     c_bands:  2 eigenvalues not converged
     c_bands:  2 eigenvalues not converged
     c_bands:  2 eigenvalues not converged
     c_bands:  2 eigenvalues not converged
     c_bands:  2 eigenvalues not converged
     c_bands:  1 eigenvalues not converged
     c_bands:  1 eigenvalues not converged
     c_bands:  1 eigenvalues not converged
     c_bands:  2 eigenvalues not converged
     c_bands:  1 eigenvalues not converged
     c_bands:  2 eigenvalues not converged
     c_bands:  2 eigenvalues not converged
     c_bands:  3 eigenvalues not converged
     c_bands:  3 eigenvalues not converged
     c_bands:  3 eigenvalues not converged
     c_bands:  2 eigenvalues not converged
     c_bands:  2 eigenvalues not converged
     c_bands:  2 eigenvalues not converged
     c_bands:  2 eigenvalues not converged
     c_bands:  4 eigenvalues not converged
     c_bands:  1 eigenvalues not converged
     c_bands:  1 eigenvalues not converged
     c_bands:  2 eigenvalues not converged
     c_bands:  2 eigenvalues not converged
     c_bands:  2 eigenvalues not converged
     c_bands:  2 eigenvalues not converged
     c_bands:  2 eigenvalues not converged
     c_bands:  2 eigenvalues not converged
     c_bands:  1 eigenvalues not converged
     c_bands:  2 eigenvalues not converged
     c_bands:  2 eigenvalues not converged
     c_bands:  1 eigenvalues not converged
     c_bands:  1 eigenvalues not converged
     c_bands:  2 eigenvalues not converged
     c_bands:  2 eigenvalues not converged
     c_bands:  3 eigenvalues not converged
     c_bands:  1 eigenvalues not converged
     c_bands:  3 eigenvalues not converged
     c_bands:  2 eigenvalues not converged
     c_bands:  2 eigenvalues not converged
     c_bands:  2 eigenvalues not converged
     c_bands:  1 eigenvalues not converged
     c_bands:  2 eigenvalues not converged
     c_bands:  2 eigenvalues not converged
     c_bands:  2 eigenvalues not converged
     c_bands:  2 eigenvalues not converged
     c_bands:  1 eigenvalues not converged
     c_bands:  2 eigenvalues not converged
     c_bands:  2 eigenvalues not converged
     c_bands:  1 eigenvalues not converged
     c_bands:  2 eigenvalues not converged
     c_bands:  2 eigenvalues not converged
     c_bands:  1 eigenvalues not converged
     c_bands:  1 eigenvalues not converged
     c_bands:  2 eigenvalues not converged
     c_bands:  2 eigenvalues not converged
     c_bands:  2 eigenvalues not converged
     c_bands:  1 eigenvalues not converged
     c_bands:  2 eigenvalues not converged
     c_bands:  2 eigenvalues not converged
     c_bands:  3 eigenvalues not converged
     c_bands:  2 eigenvalues not converged
     c_bands:  2 eigenvalues not converged
     c_bands:  2 eigenvalues not converged
     c_bands:  2 eigenvalues not converged
     c_bands:  2 eigenvalues not converged
     c_bands:  1 eigenvalues not converged
     c_bands:  1 eigenvalues not converged
     c_bands:  2 eigenvalues not converged
     c_bands:  1 eigenvalues not converged
     c_bands:  1 eigenvalues not converged
     c_bands:  1 eigenvalues not converged
     c_bands:  2 eigenvalues not converged
     c_bands:  2 eigenvalues not converged
     c_bands:  2 eigenvalues not converged
     c_bands:  2 eigenvalues not converged
     c_bands:  2 eigenvalues not converged
     c_bands:  3 eigenvalues not converged
     c_bands:  2 eigenvalues not converged
     c_bands:  3 eigenvalues not converged
     c_bands:  1 eigenvalues not converged
     c_bands:  2 eigenvalues not converged
     c_bands:  1 eigenvalues not converged
     c_bands:  1 eigenvalues not converged
     c_bands:  2 eigenvalues not converged
     c_bands:  2 eigenvalues not converged
     c_bands:  3 eigenvalues not converged
     c_bands:  2 eigenvalues not converged
     c_bands:  1 eigenvalues not converged
     c_bands:  1 eigenvalues not converged
     ethr =  1.00E-06,  avg # of iterations = 18.4

     total cpu time spent up to now is      494.8 secs

     total energy              =    -404.75977480 Ry
     Harris-Foulkes estimate   =    -477.71414183 Ry
     estimated scf accuracy    <      49.36958582 Ry

     iteration #  2     ecut=    30.00 Ry     beta= 0.70
     Davidson diagonalization with overlap
     ethr =  1.00E-02,  avg # of iterations =  5.5

     total cpu time spent up to now is      540.1 secs

     total energy              =    -440.97799148 Ry
     Harris-Foulkes estimate   =    -453.62779030 Ry
     estimated scf accuracy    <      20.82082885 Ry

     iteration #  3     ecut=    30.00 Ry     beta= 0.70
     Davidson diagonalization with overlap
     ethr =  1.00E-02,  avg # of iterations =  3.1

     total cpu time spent up to now is      572.3 secs

     total energy              =    -444.15601433 Ry
     Harris-Foulkes estimate   =    -444.65930963 Ry
     estimated scf accuracy    <       1.02581224 Ry

     iteration #  4     ecut=    30.00 Ry     beta= 0.70
     Davidson diagonalization with overlap
     ethr =  1.97E-03,  avg # of iterations =  1.5

     total cpu time spent up to now is      593.4 secs

     total energy              =    -444.06135057 Ry
     Harris-Foulkes estimate   =    -444.21409670 Ry
     estimated scf accuracy    <       0.28866000 Ry

     iteration #  5     ecut=    30.00 Ry     beta= 0.70
     Davidson diagonalization with overlap
     ethr =  5.55E-04,  avg # of iterations =  2.0

     total cpu time spent up to now is      616.3 secs

     total energy              =    -444.02809827 Ry
     Harris-Foulkes estimate   =    -444.08085861 Ry
     estimated scf accuracy    <       0.06810858 Ry

     iteration #  6     ecut=    30.00 Ry     beta= 0.70
     Davidson diagonalization with overlap
     ethr =  1.31E-04,  avg # of iterations =  2.0

     negative rho (up, down):  4.450E-04 0.000E+00

     total cpu time spent up to now is      642.0 secs

     total energy              =    -444.03897614 Ry
     Harris-Foulkes estimate   =    -444.03994580 Ry
     estimated scf accuracy    <       0.00194679 Ry

     iteration #  7     ecut=    30.00 Ry     beta= 0.70
     Davidson diagonalization with overlap
     ethr =  3.74E-06,  avg # of iterations =  2.1

     negative rho (up, down):  6.273E-05 0.000E+00

     total cpu time spent up to now is      671.1 secs

     total energy              =    -444.04090357 Ry
     Harris-Foulkes estimate   =    -444.04106430 Ry
     estimated scf accuracy    <       0.00025922 Ry

     iteration #  8     ecut=    30.00 Ry     beta= 0.70
     Davidson diagonalization with overlap
     ethr =  4.98E-07,  avg # of iterations =  2.0

     negative rho (up, down):  1.541E-05 0.000E+00

     total cpu time spent up to now is      697.5 secs

     total energy              =    -444.04092635 Ry
     Harris-Foulkes estimate   =    -444.04093603 Ry
     estimated scf accuracy    <       0.00001760 Ry

     iteration #  9     ecut=    30.00 Ry     beta= 0.70
     Davidson diagonalization with overlap
     ethr =  3.39E-08,  avg # of iterations =  2.6

     total cpu time spent up to now is      724.9 secs

     total energy              =    -444.04092829 Ry
     Harris-Foulkes estimate   =    -444.04092959 Ry
     estimated scf accuracy    <       0.00000227 Ry

     iteration # 10     ecut=    30.00 Ry     beta= 0.70
     Davidson diagonalization with overlap
     ethr =  4.37E-09,  avg # of iterations =  2.6

     total cpu time spent up to now is      753.8 secs

     total energy              =    -444.04092866 Ry
     Harris-Foulkes estimate   =    -444.04092879 Ry
     estimated scf accuracy    <       0.00000023 Ry

     iteration # 11     ecut=    30.00 Ry     beta= 0.70
     Davidson diagonalization with overlap
     ethr =  4.36E-10,  avg # of iterations =  2.7

     total cpu time spent up to now is      783.3 secs

     total energy              =    -444.04092870 Ry
     Harris-Foulkes estimate   =    -444.04092871 Ry
     estimated scf accuracy    <          8.5E-09 Ry

     iteration # 12     ecut=    30.00 Ry     beta= 0.70
     Davidson diagonalization with overlap
     ethr =  1.64E-11,  avg # of iterations =  3.0

     total cpu time spent up to now is      814.2 secs

     total energy              =    -444.04092870 Ry
     Harris-Foulkes estimate   =    -444.04092870 Ry
     estimated scf accuracy    <          1.5E-09 Ry

     iteration # 13     ecut=    30.00 Ry     beta= 0.70
     Davidson diagonalization with overlap
     ethr =  2.82E-12,  avg # of iterations =  2.7

     total cpu time spent up to now is      841.4 secs

     total energy              =    -444.04092870 Ry
     Harris-Foulkes estimate   =    -444.04092870 Ry
     estimated scf accuracy    <          3.5E-11 Ry

     iteration # 14     ecut=    30.00 Ry     beta= 0.70
     Davidson diagonalization with overlap
     ethr =  1.00E-13,  avg # of iterations =  2.1

     total cpu time spent up to now is      868.7 secs

     End of self-consistent calculation

     Number of k-points >= 100: set verbosity='high' to print the bands.

     highest occupied level (ev):    15.4406

!    total energy              =    -444.04092870 Ry
     Harris-Foulkes estimate   =    -444.04092870 Ry
     estimated scf accuracy    <          8.3E-13 Ry

     The total energy is the sum of the following terms:

     one-electron contribution =     -63.66405019 Ry
     hartree contribution      =      82.83354329 Ry
     xc contribution           =    -123.03466120 Ry
     ewald contribution        =    -340.17576060 Ry

     convergence has been achieved in  14 iterations

     Forces acting on atoms (cartesian axes, Ry/au):

     atom    1 type  1   force =    -0.00356417   -0.00356417    0.00000000
     atom    2 type  1   force =    -0.00251029   -0.00251029    0.00000000
     atom    3 type  2   force =    -0.07169797    0.07003308    0.00000000
     atom    4 type  2   force =     0.07003308   -0.07169797    0.00000000
     atom    5 type  2   force =    -0.06698208   -0.06698208    0.00000000
     atom    6 type  2   force =     0.07472142    0.07472142    0.00000000

     Total force =     0.200670     Total SCF correction =     0.000001


     Computing stress (Cartesian axis) and pressure

          total   stress  (Ry/bohr**3)                   (kbar)     P=-3236.27
  -0.02300297   0.00000026   0.00000000      -3383.85      0.04      0.00
   0.00000026  -0.02300297   0.00000000          0.04  -3383.85      0.00
   0.00000000   0.00000000  -0.01999326          0.00      0.00  -2941.11


     number of scf cycles    =   2
     number of bfgs steps    =   1

     enthalpy old            =    -438.4393172589 Ry
     enthalpy new            =    -444.0409287037 Ry

     CASE: enthalpy_new < enthalpy_old

     new trust radius        =       0.4050465130 bohr
     new conv_thr            =            1.0E-12 Ry

     new unit-cell volume =    281.21557 a.u.^3 (    41.67185 Ang^3 )
     density =     12.01082 g/cm^3

CELL_PARAMETERS (alat=  9.11000000)
   0.793574695   0.000000000   0.000000000
   0.000000000   0.793574695   0.000000000
   0.000000000   0.000000000   0.590620630

ATOMIC_POSITIONS (crystal)
Sn      -0.000544034  -0.000544034   0.000000000
Sn       0.499627206   0.499627206   0.500000000
O        0.796626406   0.202139193   0.500000000
O        0.202139193   0.796626406   0.500000000
O        0.297322385   0.297322385   0.000000000
O        0.702828843   0.702828843   0.000000000



     Writing output data file SnO2.save
     Check: negative starting charge=   -0.000242
     NEW-OLD atomic charge density approx. for the potential

     Check: negative/imaginary core charge=   -0.000410    0.000000

     negative rho (up, down):  5.381E-04 0.000E+00
     extrapolated charge   38.08071, renormalised to   52.00000

     total cpu time spent up to now is      880.5 secs

     Self-consistent Calculation

     iteration #  1     ecut=    30.00 Ry     beta= 0.70
     Davidson diagonalization with overlap
     ethr =  1.00E-06,  avg # of iterations =  7.0

     total cpu time spent up to now is      948.1 secs

     total energy              =    -439.21428133 Ry
     Harris-Foulkes estimate   =    -457.53859428 Ry
     estimated scf accuracy    <       5.18746204 Ry

     iteration #  2     ecut=    30.00 Ry     beta= 0.70
     Davidson diagonalization with overlap
     ethr =  9.98E-03,  avg # of iterations =  3.0

     total cpu time spent up to now is      980.1 secs

     total energy              =    -444.26081742 Ry
     Harris-Foulkes estimate   =    -445.85855631 Ry
     estimated scf accuracy    <       3.45880936 Ry

     iteration #  3     ecut=    30.00 Ry     beta= 0.70
     Davidson diagonalization with overlap
     ethr =  6.65E-03,  avg # of iterations =  2.0

     total cpu time spent up to now is     1004.9 secs

     total energy              =    -444.46452509 Ry
     Harris-Foulkes estimate   =    -444.60305723 Ry
     estimated scf accuracy    <       0.29438237 Ry

     iteration #  4     ecut=    30.00 Ry     beta= 0.70
     Davidson diagonalization with overlap
     ethr =  5.66E-04,  avg # of iterations =  2.0

     total cpu time spent up to now is     1029.6 secs

     total energy              =    -444.47580671 Ry
     Harris-Foulkes estimate   =    -444.49695383 Ry
     estimated scf accuracy    <       0.03505317 Ry

     iteration #  5     ecut=    30.00 Ry     beta= 0.70
     Davidson diagonalization with overlap
     ethr =  6.74E-05,  avg # of iterations =  2.3

     total cpu time spent up to now is     1058.8 secs

     total energy              =    -444.48621821 Ry
     Harris-Foulkes estimate   =    -444.48728272 Ry
     estimated scf accuracy    <       0.00194318 Ry

     iteration #  6     ecut=    30.00 Ry     beta= 0.70
     Davidson diagonalization with overlap
     ethr =  3.74E-06,  avg # of iterations =  2.0

     total cpu time spent up to now is     1085.0 secs

     total energy              =    -444.48657095 Ry
     Harris-Foulkes estimate   =    -444.48658601 Ry
     estimated scf accuracy    <       0.00002705 Ry

     iteration #  7     ecut=    30.00 Ry     beta= 0.70
     Davidson diagonalization with overlap
     ethr =  5.20E-08,  avg # of iterations =  2.8

     total cpu time spent up to now is     1115.9 secs

     total energy              =    -444.48657868 Ry
     Harris-Foulkes estimate   =    -444.48657969 Ry
     estimated scf accuracy    <       0.00000203 Ry

     iteration #  8     ecut=    30.00 Ry     beta= 0.70
     Davidson diagonalization with overlap
     ethr =  3.90E-09,  avg # of iterations =  2.1

     total cpu time spent up to now is     1143.0 secs

     total energy              =    -444.48657895 Ry
     Harris-Foulkes estimate   =    -444.48657910 Ry
     estimated scf accuracy    <       0.00000027 Ry

     iteration #  9     ecut=    30.00 Ry     beta= 0.70
     Davidson diagonalization with overlap
     ethr =  5.10E-10,  avg # of iterations =  2.0

     total cpu time spent up to now is     1172.5 secs

     total energy              =    -444.48657901 Ry
     Harris-Foulkes estimate   =    -444.48657901 Ry
     estimated scf accuracy    <          4.8E-09 Ry

     iteration # 10     ecut=    30.00 Ry     beta= 0.70
     Davidson diagonalization with overlap
     ethr =  9.28E-12,  avg # of iterations =  2.2

     total cpu time spent up to now is     1199.0 secs

     total energy              =    -444.48657901 Ry
     Harris-Foulkes estimate   =    -444.48657901 Ry
     estimated scf accuracy    <          1.6E-09 Ry

     iteration # 11     ecut=    30.00 Ry     beta= 0.70
     Davidson diagonalization with overlap
     ethr =  3.09E-12,  avg # of iterations =  2.0

     total cpu time spent up to now is     1226.9 secs

     total energy              =    -444.48657901 Ry
     Harris-Foulkes estimate   =    -444.48657901 Ry
     estimated scf accuracy    <          2.9E-11 Ry

     iteration # 12     ecut=    30.00 Ry     beta= 0.70
     Davidson diagonalization with overlap
     ethr =  1.00E-13,  avg # of iterations =  2.3

     total cpu time spent up to now is     1253.6 secs

     total energy              =    -444.48657901 Ry
     Harris-Foulkes estimate   =    -444.48657901 Ry
     estimated scf accuracy    <          1.7E-12 Ry

     iteration # 13     ecut=    30.00 Ry     beta= 0.70
     Davidson diagonalization with overlap
     ethr =  1.00E-13,  avg # of iterations =  1.0

     total cpu time spent up to now is     1273.8 secs

     End of self-consistent calculation

     Number of k-points >= 100: set verbosity='high' to print the bands.

     highest occupied level (ev):    21.9141

!    total energy              =    -444.48657901 Ry
     Harris-Foulkes estimate   =    -444.48657901 Ry
     estimated scf accuracy    <          2.7E-13 Ry

     The total energy is the sum of the following terms:

     one-electron contribution =     -19.70693957 Ry
     hartree contribution      =      71.94433754 Ry
     xc contribution           =    -125.26959279 Ry
     ewald contribution        =    -371.45438420 Ry

     convergence has been achieved in  13 iterations

     Forces acting on atoms (cartesian axes, Ry/au):

     atom    1 type  1   force =     0.02006577    0.02006577    0.00000000
     atom    2 type  1   force =     0.00416693    0.00416693    0.00000000
     atom    3 type  2   force =     0.25139857   -0.25037963    0.00000000
     atom    4 type  2   force =    -0.25037963    0.25139857    0.00000000
     atom    5 type  2   force =     0.23826411    0.23826411    0.00000000
     atom    6 type  2   force =    -0.26351576   -0.26351576    0.00000000

     Total force =     0.710664     Total SCF correction =     0.000000


     Computing stress (Cartesian axis) and pressure

          total   stress  (Ry/bohr**3)                   (kbar)     P= 1282.13
   0.01490342   0.00000036  -0.00000000       2192.37      0.05     -0.00
   0.00000036   0.01490342   0.00000000          0.05   2192.37      0.00
   0.00000000   0.00000000  -0.00365963          0.00      0.00   -538.35


     number of scf cycles    =   3
     number of bfgs steps    =   2

     enthalpy old            =    -444.0409287037 Ry
     enthalpy new            =    -444.4865790140 Ry

     CASE: enthalpy_new < enthalpy_old

     new trust radius        =       0.4608787915 bohr
     new conv_thr            =            1.0E-12 Ry

     new unit-cell volume =    280.40996 a.u.^3 (    41.55247 Ang^3 )
     density =     12.04533 g/cm^3

CELL_PARAMETERS (alat=  9.11000000)
   0.853226083   0.000000000   0.000000000
   0.000000000   0.853226083   0.000000000
   0.000000000   0.000000000   0.509459953

ATOMIC_POSITIONS (crystal)
Sn       0.000441320   0.000441320   0.000000000
Sn       0.499779735   0.499779735   0.500000000
O        0.808276606   0.190496147   0.500000000
O        0.190496147   0.808276606   0.500000000
O        0.308397022   0.308397022   0.000000000
O        0.690609170   0.690609170   0.000000000



     Writing output data file SnO2.save
     NEW-OLD atomic charge density approx. for the potential

     Check: negative/imaginary core charge=   -0.000440    0.000000
     extrapolated charge   51.85061, renormalised to   52.00000

     total cpu time spent up to now is     1285.5 secs

     Self-consistent Calculation

     iteration #  1     ecut=    30.00 Ry     beta= 0.70
     Davidson diagonalization with overlap
     ethr =  1.00E-06,  avg # of iterations =  7.3

     total cpu time spent up to now is     1355.2 secs

     total energy              =    -444.12212628 Ry
     Harris-Foulkes estimate   =    -444.33181565 Ry
     estimated scf accuracy    <       0.04555401 Ry

     iteration #  2     ecut=    30.00 Ry     beta= 0.70
     Davidson diagonalization with overlap
     ethr =  8.76E-05,  avg # of iterations =  2.0

     total cpu time spent up to now is     1381.5 secs

     total energy              =    -444.13049420 Ry
     Harris-Foulkes estimate   =    -444.13211993 Ry
     estimated scf accuracy    <       0.00417984 Ry

     iteration #  3     ecut=    30.00 Ry     beta= 0.70
     Davidson diagonalization with overlap
     ethr =  8.04E-06,  avg # of iterations =  2.0

     total cpu time spent up to now is     1408.4 secs

     total energy              =    -444.13135763 Ry
     Harris-Foulkes estimate   =    -444.13136855 Ry
     estimated scf accuracy    <       0.00030460 Ry

     iteration #  4     ecut=    30.00 Ry     beta= 0.70
     Davidson diagonalization with overlap
     ethr =  5.86E-07,  avg # of iterations =  2.0

     total cpu time spent up to now is     1435.0 secs

     total energy              =    -444.13140705 Ry
     Harris-Foulkes estimate   =    -444.13140574 Ry
     estimated scf accuracy    <       0.00001117 Ry

     iteration #  5     ecut=    30.00 Ry     beta= 0.70
     Davidson diagonalization with overlap
     ethr =  2.15E-08,  avg # of iterations =  2.0

     total cpu time spent up to now is     1461.6 secs

     total energy              =    -444.13140897 Ry
     Harris-Foulkes estimate   =    -444.13140875 Ry
     estimated scf accuracy    <       0.00000038 Ry

     iteration #  6     ecut=    30.00 Ry     beta= 0.70
     Davidson diagonalization with overlap
     ethr =  7.39E-10,  avg # of iterations =  2.0

     total cpu time spent up to now is     1489.3 secs

     total energy              =    -444.13140902 Ry
     Harris-Foulkes estimate   =    -444.13140904 Ry
     estimated scf accuracy    <       0.00000003 Ry

     iteration #  7     ecut=    30.00 Ry     beta= 0.70
     Davidson diagonalization with overlap
     ethr =  4.96E-11,  avg # of iterations =  2.5

     total cpu time spent up to now is     1518.7 secs

     total energy              =    -444.13140903 Ry
     Harris-Foulkes estimate   =    -444.13140903 Ry
     estimated scf accuracy    <          4.6E-09 Ry

     iteration #  8     ecut=    30.00 Ry     beta= 0.70
     Davidson diagonalization with overlap
     ethr =  8.85E-12,  avg # of iterations =  2.3

     total cpu time spent up to now is     1547.5 secs

     total energy              =    -444.13140903 Ry
     Harris-Foulkes estimate   =    -444.13140903 Ry
     estimated scf accuracy    <          2.2E-10 Ry

     iteration #  9     ecut=    30.00 Ry     beta= 0.70
     Davidson diagonalization with overlap
     ethr =  4.19E-13,  avg # of iterations =  2.0

     total cpu time spent up to now is     1575.9 secs

     total energy              =    -444.13140903 Ry
     Harris-Foulkes estimate   =    -444.13140903 Ry
     estimated scf accuracy    <          3.9E-12 Ry

     iteration # 10     ecut=    30.00 Ry     beta= 0.70
     Davidson diagonalization with overlap
     ethr =  1.00E-13,  avg # of iterations =  1.0

     total cpu time spent up to now is     1596.0 secs

     End of self-consistent calculation

     Number of k-points >= 100: set verbosity='high' to print the bands.

     highest occupied level (ev):    21.4642

!    total energy              =    -444.13140903 Ry
     Harris-Foulkes estimate   =    -444.13140903 Ry
     estimated scf accuracy    <          1.6E-13 Ry

     The total energy is the sum of the following terms:

     one-electron contribution =     -35.61136865 Ry
     hartree contribution      =      79.67866357 Ry
     xc contribution           =    -125.59920165 Ry
     ewald contribution        =    -362.59950230 Ry

     convergence has been achieved in  10 iterations

     Forces acting on atoms (cartesian axes, Ry/au):

     atom    1 type  1   force =    -0.00686274   -0.00686274    0.00000000
     atom    2 type  1   force =    -0.00312530   -0.00312530    0.00000000
     atom    3 type  2   force =    -0.40354978    0.39687951   -0.00000000
     atom    4 type  2   force =     0.39687951   -0.40354978    0.00000000
     atom    5 type  2   force =    -0.39195027   -0.39195027    0.00000000
     atom    6 type  2   force =     0.40860858    0.40860858    0.00000000

     Total force =     1.132262     Total SCF correction =     0.000001


     Computing stress (Cartesian axis) and pressure

          total   stress  (Ry/bohr**3)                   (kbar)     P= 1779.30
   0.00190525   0.00000178   0.00000000        280.27      0.26      0.00
   0.00000178   0.00190525   0.00000000          0.26    280.27      0.00
   0.00000000   0.00000000   0.03247582          0.00      0.00   4777.36


     number of scf cycles    =   4
     number of bfgs steps    =   3

     enthalpy old            =    -444.4865790140 Ry
     enthalpy new            =    -444.1314090306 Ry

     CASE: enthalpy_new > enthalpy_old

     new trust radius        =       0.1936686629 bohr
     new conv_thr            =            1.0E-12 Ry

     new unit-cell volume =    281.96787 a.u.^3 (    41.78333 Ang^3 )
     density =     11.97877 g/cm^3

CELL_PARAMETERS (alat=  9.11000000)
   0.815227671   0.000000000   0.000000000
   0.000000000   0.815227671   0.000000000
   0.000000000   0.000000000   0.561159955

ATOMIC_POSITIONS (crystal)
Sn      -0.000186358  -0.000186358   0.000000000
Sn       0.499682573   0.499682573   0.500000000
O        0.800855335   0.197912860   0.500000000
O        0.197912860   0.800855335   0.500000000
O        0.301342390   0.301342390   0.000000000
O        0.698393200   0.698393200   0.000000000



     Writing output data file SnO2.save
     NEW-OLD atomic charge density approx. for the potential

     Check: negative/imaginary core charge=   -0.000383    0.000000

     negative rho (up, down):  1.281E-07 0.000E+00
     extrapolated charge   52.28729, renormalised to   52.00000

     total cpu time spent up to now is     1607.7 secs

     Self-consistent Calculation

     iteration #  1     ecut=    30.00 Ry     beta= 0.70
     Davidson diagonalization with overlap
     ethr =  1.00E-06,  avg # of iterations =  6.7

     total cpu time spent up to now is     1669.9 secs

     total energy              =    -444.65009978 Ry
     Harris-Foulkes estimate   =    -444.35657661 Ry
     estimated scf accuracy    <       0.02219967 Ry

     iteration #  2     ecut=    30.00 Ry     beta= 0.70
     Davidson diagonalization with overlap
     ethr =  4.27E-05,  avg # of iterations =  2.0

     total cpu time spent up to now is     1698.9 secs

     total energy              =    -444.65577195 Ry
     Harris-Foulkes estimate   =    -444.65753594 Ry
     estimated scf accuracy    <       0.00359269 Ry

     iteration #  3     ecut=    30.00 Ry     beta= 0.70
     Davidson diagonalization with overlap
     ethr =  6.91E-06,  avg # of iterations =  2.0

     total cpu time spent up to now is     1725.8 secs

     total energy              =    -444.65644130 Ry
     Harris-Foulkes estimate   =    -444.65643886 Ry
     estimated scf accuracy    <       0.00013997 Ry

     iteration #  4     ecut=    30.00 Ry     beta= 0.70
     Davidson diagonalization with overlap
     ethr =  2.69E-07,  avg # of iterations =  2.0

     total cpu time spent up to now is     1754.5 secs

     total energy              =    -444.65646796 Ry
     Harris-Foulkes estimate   =    -444.65646915 Ry
     estimated scf accuracy    <       0.00001005 Ry

     iteration #  5     ecut=    30.00 Ry     beta= 0.70
     Davidson diagonalization with overlap
     ethr =  1.93E-08,  avg # of iterations =  2.0

     total cpu time spent up to now is     1782.1 secs

     total energy              =    -444.65646979 Ry
     Harris-Foulkes estimate   =    -444.65646955 Ry
     estimated scf accuracy    <       0.00000052 Ry

     iteration #  6     ecut=    30.00 Ry     beta= 0.70
     Davidson diagonalization with overlap
     ethr =  1.01E-09,  avg # of iterations =  2.0

     total cpu time spent up to now is     1807.2 secs

     total energy              =    -444.65646984 Ry
     Harris-Foulkes estimate   =    -444.65646984 Ry
     estimated scf accuracy    <          7.5E-09 Ry

     iteration #  7     ecut=    30.00 Ry     beta= 0.70
     Davidson diagonalization with overlap
     ethr =  1.45E-11,  avg # of iterations =  2.9

     total cpu time spent up to now is     1838.5 secs

     total energy              =    -444.65646984 Ry
     Harris-Foulkes estimate   =    -444.65646985 Ry
     estimated scf accuracy    <          3.6E-09 Ry

     iteration #  8     ecut=    30.00 Ry     beta= 0.70
     Davidson diagonalization with overlap
     ethr =  6.94E-12,  avg # of iterations =  2.1

     total cpu time spent up to now is     1865.1 secs

     total energy              =    -444.65646985 Ry
     Harris-Foulkes estimate   =    -444.65646985 Ry
     estimated scf accuracy    <          5.8E-11 Ry

     iteration #  9     ecut=    30.00 Ry     beta= 0.70
     Davidson diagonalization with overlap
     ethr =  1.12E-13,  avg # of iterations =  2.5

     total cpu time spent up to now is     1893.8 secs

     total energy              =    -444.65646985 Ry
     Harris-Foulkes estimate   =    -444.65646985 Ry
     estimated scf accuracy    <          1.9E-12 Ry

     iteration # 10     ecut=    30.00 Ry     beta= 0.70
     Davidson diagonalization with overlap
     ethr =  1.00E-13,  avg # of iterations =  1.0

     total cpu time spent up to now is     1914.0 secs

     End of self-consistent calculation

     Number of k-points >= 100: set verbosity='high' to print the bands.

     highest occupied level (ev):    21.5496

!    total energy              =    -444.65646985 Ry
     Harris-Foulkes estimate   =    -444.65646985 Ry
     estimated scf accuracy    <          2.5E-13 Ry

     The total energy is the sum of the following terms:

     one-electron contribution =     -24.12236099 Ry
     hartree contribution      =      73.97044311 Ry
     xc contribution           =    -125.34475419 Ry
     ewald contribution        =    -369.15979777 Ry

     convergence has been achieved in  10 iterations

     Forces acting on atoms (cartesian axes, Ry/au):

     atom    1 type  1   force =     0.00230343    0.00230343    0.00000000
     atom    2 type  1   force =     0.00328729    0.00328729    0.00000000
     atom    3 type  2   force =     0.00910017   -0.00980683    0.00000000
     atom    4 type  2   force =    -0.00980683    0.00910017    0.00000000
     atom    5 type  2   force =     0.00692565    0.00692565    0.00000000
     atom    6 type  2   force =    -0.01180971   -0.01180971    0.00000000

     Total force =     0.027660     Total SCF correction =     0.000001


     Computing stress (Cartesian axis) and pressure

          total   stress  (Ry/bohr**3)                   (kbar)     P= 1394.72
   0.00938606  -0.00000037   0.00000000       1380.74     -0.05      0.00
  -0.00000037   0.00938606   0.00000000         -0.05   1380.74      0.00
   0.00000000   0.00000000   0.00967112          0.00      0.00   1422.67


     number of scf cycles    =   5
     number of bfgs steps    =   3

     enthalpy old            =    -444.4865790140 Ry
     enthalpy new            =    -444.6564698454 Ry

     CASE: enthalpy_new < enthalpy_old

     new trust radius        =       0.1094700037 bohr
     new conv_thr            =            1.0E-12 Ry

     new unit-cell volume =    310.10291 a.u.^3 (    45.95251 Ang^3 )
     density =     10.89196 g/cm^3

CELL_PARAMETERS (alat=  9.11000000)
   0.841330790   0.000000000   0.000000000
   0.000000000   0.841330790   0.000000000
   0.000000000   0.000000000   0.579451567

ATOMIC_POSITIONS (crystal)
Sn       0.000037751   0.000037751   0.000000000
Sn       0.500023939   0.500023939   0.500000000
O        0.801862521   0.196874471   0.500000000
O        0.196874471   0.801862521   0.500000000
O        0.302089457   0.302089457   0.000000000
O        0.697111861   0.697111861   0.000000000



     Writing output data file SnO2.save
     NEW-OLD atomic charge density approx. for the potential

     Check: negative/imaginary core charge=   -0.000512    0.000000

     negative rho (up, down):  9.099E-05 0.000E+00
     extrapolated charge   56.71758, renormalised to   52.00000

     total cpu time spent up to now is     1926.0 secs

     Self-consistent Calculation

     iteration #  1     ecut=    30.00 Ry     beta= 0.70
     Davidson diagonalization with overlap
     ethr =  1.00E-06,  avg # of iterations =  5.0

     negative rho (up, down):  2.244E-05 0.000E+00

     total cpu time spent up to now is     1977.7 secs

     total energy              =    -443.85595225 Ry
     Harris-Foulkes estimate   =    -438.92713100 Ry
     estimated scf accuracy    <       0.48839976 Ry

     iteration #  2     ecut=    30.00 Ry     beta= 0.70
     Davidson diagonalization with overlap
     ethr =  9.39E-04,  avg # of iterations =  3.4

     negative rho (up, down):  1.299E-05 0.000E+00

     total cpu time spent up to now is     2016.7 secs

     total energy              =    -444.72340417 Ry
     Harris-Foulkes estimate   =    -445.01812959 Ry
     estimated scf accuracy    <       0.72546642 Ry

     iteration #  3     ecut=    30.00 Ry     beta= 0.70
     Davidson diagonalization with overlap
     ethr =  9.39E-04,  avg # of iterations =  2.0

     negative rho (up, down):  5.936E-06 0.000E+00

     total cpu time spent up to now is     2041.1 secs

     total energy              =    -444.72976406 Ry
     Harris-Foulkes estimate   =    -444.76969147 Ry
     estimated scf accuracy    <       0.13473533 Ry

     iteration #  4     ecut=    30.00 Ry     beta= 0.70
     Davidson diagonalization with overlap
     ethr =  2.59E-04,  avg # of iterations =  1.0

     total cpu time spent up to now is     2061.3 secs

     total energy              =    -444.70200430 Ry
     Harris-Foulkes estimate   =    -444.73358774 Ry
     estimated scf accuracy    <       0.05930771 Ry

     iteration #  5     ecut=    30.00 Ry     beta= 0.70
     Davidson diagonalization with overlap
     ethr =  1.14E-04,  avg # of iterations =  2.0

     total cpu time spent up to now is     2087.9 secs

     total energy              =    -444.70965575 Ry
     Harris-Foulkes estimate   =    -444.71066278 Ry
     estimated scf accuracy    <       0.00150763 Ry

     iteration #  6     ecut=    30.00 Ry     beta= 0.70
     Davidson diagonalization with overlap
     ethr =  2.90E-06,  avg # of iterations =  2.0

     total cpu time spent up to now is     2117.3 secs

     total energy              =    -444.71001959 Ry
     Harris-Foulkes estimate   =    -444.71002196 Ry
     estimated scf accuracy    <       0.00000686 Ry

     iteration #  7     ecut=    30.00 Ry     beta= 0.70
     Davidson diagonalization with overlap
     ethr =  1.32E-08,  avg # of iterations =  3.0

     total cpu time spent up to now is     2148.8 secs

     total energy              =    -444.71001931 Ry
     Harris-Foulkes estimate   =    -444.71002354 Ry
     estimated scf accuracy    <       0.00000714 Ry

     iteration #  8     ecut=    30.00 Ry     beta= 0.70
     Davidson diagonalization with overlap
     ethr =  1.32E-08,  avg # of iterations =  2.0

     total cpu time spent up to now is     2177.8 secs

     total energy              =    -444.71002059 Ry
     Harris-Foulkes estimate   =    -444.71002057 Ry
     estimated scf accuracy    <       0.00000001 Ry

     iteration #  9     ecut=    30.00 Ry     beta= 0.70
     Davidson diagonalization with overlap
     ethr =  2.16E-11,  avg # of iterations =  4.0

     total cpu time spent up to now is     2219.3 secs

     total energy              =    -444.71002057 Ry
     Harris-Foulkes estimate   =    -444.71002062 Ry
     estimated scf accuracy    <       0.00000012 Ry

     iteration # 10     ecut=    30.00 Ry     beta= 0.70
     Davidson diagonalization with overlap
     ethr =  2.16E-11,  avg # of iterations =  3.0

     total cpu time spent up to now is     2251.4 secs

     total energy              =    -444.71002057 Ry
     Harris-Foulkes estimate   =    -444.71002058 Ry
     estimated scf accuracy    <       0.00000001 Ry

     iteration # 11     ecut=    30.00 Ry     beta= 0.70
     Davidson diagonalization with overlap
     ethr =  2.16E-11,  avg # of iterations =  2.0

     total cpu time spent up to now is     2279.5 secs

     total energy              =    -444.71002058 Ry
     Harris-Foulkes estimate   =    -444.71002058 Ry
     estimated scf accuracy    <          6.7E-11 Ry

     iteration # 12     ecut=    30.00 Ry     beta= 0.70
     Davidson diagonalization with overlap
     ethr =  1.29E-13,  avg # of iterations =  3.0

     total cpu time spent up to now is     2311.1 secs

     total energy              =    -444.71002058 Ry
     Harris-Foulkes estimate   =    -444.71002058 Ry
     estimated scf accuracy    <          1.9E-12 Ry

     iteration # 13     ecut=    30.00 Ry     beta= 0.70
     Davidson diagonalization with overlap
     ethr =  1.00E-13,  avg # of iterations =  1.0

     total cpu time spent up to now is     2331.4 secs

     End of self-consistent calculation

     Number of k-points >= 100: set verbosity='high' to print the bands.

     highest occupied level (ev):    18.8479

!    total energy              =    -444.71002058 Ry
     Harris-Foulkes estimate   =    -444.71002058 Ry
     estimated scf accuracy    <          1.7E-13 Ry

     The total energy is the sum of the following terms:

     one-electron contribution =     -39.99362904 Ry
     hartree contribution      =      77.27240783 Ry
     xc contribution           =    -124.40174674 Ry
     ewald contribution        =    -357.58705262 Ry

     convergence has been achieved in  13 iterations

     Forces acting on atoms (cartesian axes, Ry/au):

     atom    1 type  1   force =    -0.00598906   -0.00598906    0.00000000
     atom    2 type  1   force =    -0.00215782   -0.00215782    0.00000000
     atom    3 type  2   force =    -0.00921865    0.00679757    0.00000000
     atom    4 type  2   force =     0.00679757   -0.00921865    0.00000000
     atom    5 type  2   force =    -0.00260853   -0.00260853    0.00000000
     atom    6 type  2   force =     0.01317649    0.01317649    0.00000000

     Total force =     0.026538     Total SCF correction =     0.000001


     Computing stress (Cartesian axis) and pressure

          total   stress  (Ry/bohr**3)                   (kbar)     P= -741.10
  -0.00464930   0.00000093   0.00000000       -683.94      0.14      0.00
   0.00000093  -0.00464930  -0.00000000          0.14   -683.94     -0.00
   0.00000000   0.00000000  -0.00581501          0.00      0.00   -855.42


     number of scf cycles    =   6
     number of bfgs steps    =   4

     enthalpy old            =    -444.6564698454 Ry
     enthalpy new            =    -444.7100205768 Ry

     CASE: enthalpy_new < enthalpy_old

     new trust radius        =       0.0515907327 bohr
     new conv_thr            =            1.0E-12 Ry

     new unit-cell volume =    299.86844 a.u.^3 (    44.43592 Ang^3 )
     density =     11.26370 g/cm^3

CELL_PARAMETERS (alat=  9.11000000)
   0.833457807   0.000000000   0.000000000
   0.000000000   0.833457807   0.000000000
   0.000000000   0.000000000   0.570963556

ATOMIC_POSITIONS (crystal)
Sn      -0.000354366  -0.000354366   0.000000000
Sn       0.499880482   0.499880482   0.500000000
O        0.800775938   0.197802515   0.500000000
O        0.197802515   0.800775938   0.500000000
O        0.301436095   0.301436095   0.000000000
O        0.698459335   0.698459335   0.000000000



     Writing output data file SnO2.save
     NEW-OLD atomic charge density approx. for the potential

     Check: negative/imaginary core charge=   -0.000461    0.000000
     extrapolated charge   50.22535, renormalised to   52.00000

     total cpu time spent up to now is     2343.0 secs

     Self-consistent Calculation

     iteration #  1     ecut=    30.00 Ry     beta= 0.70
     Davidson diagonalization with overlap
     ethr =  1.00E-06,  avg # of iterations =  4.3

     total cpu time spent up to now is     2391.4 secs

     total energy              =    -444.63034822 Ry
     Harris-Foulkes estimate   =    -446.78775077 Ry
     estimated scf accuracy    <       0.07046745 Ry

     iteration #  2     ecut=    30.00 Ry     beta= 0.70
     Davidson diagonalization with overlap
     ethr =  1.36E-04,  avg # of iterations =  3.0

     total cpu time spent up to now is     2426.1 secs

     total energy              =    -444.73716983 Ry
     Harris-Foulkes estimate   =    -444.77292199 Ry
     estimated scf accuracy    <       0.08574756 Ry

     iteration #  3     ecut=    30.00 Ry     beta= 0.70
     Davidson diagonalization with overlap
     ethr =  1.36E-04,  avg # of iterations =  2.0

     total cpu time spent up to now is     2450.4 secs

     total energy              =    -444.73864745 Ry
     Harris-Foulkes estimate   =    -444.74334704 Ry
     estimated scf accuracy    <       0.01321790 Ry

     iteration #  4     ecut=    30.00 Ry     beta= 0.70
     Davidson diagonalization with overlap
     ethr =  2.54E-05,  avg # of iterations =  1.0

     total cpu time spent up to now is     2471.0 secs

     total energy              =    -444.73638172 Ry
     Harris-Foulkes estimate   =    -444.73925652 Ry
     estimated scf accuracy    <       0.00435796 Ry

     iteration #  5     ecut=    30.00 Ry     beta= 0.70
     Davidson diagonalization with overlap
     ethr =  8.38E-06,  avg # of iterations =  2.0

     total cpu time spent up to now is     2500.5 secs

     total energy              =    -444.73761974 Ry
     Harris-Foulkes estimate   =    -444.73782137 Ry
     estimated scf accuracy    <       0.00036383 Ry

     iteration #  6     ecut=    30.00 Ry     beta= 0.70
     Davidson diagonalization with overlap
     ethr =  7.00E-07,  avg # of iterations =  2.0

     total cpu time spent up to now is     2526.8 secs

     total energy              =    -444.73768297 Ry
     Harris-Foulkes estimate   =    -444.73768384 Ry
     estimated scf accuracy    <       0.00000220 Ry

     iteration #  7     ecut=    30.00 Ry     beta= 0.70
     Davidson diagonalization with overlap
     ethr =  4.23E-09,  avg # of iterations =  3.0

     total cpu time spent up to now is     2558.9 secs

     total energy              =    -444.73768391 Ry
     Harris-Foulkes estimate   =    -444.73768391 Ry
     estimated scf accuracy    <       0.00000038 Ry

     iteration #  8     ecut=    30.00 Ry     beta= 0.70
     Davidson diagonalization with overlap
     ethr =  7.26E-10,  avg # of iterations =  1.6

     total cpu time spent up to now is     2579.8 secs

     total energy              =    -444.73768378 Ry
     Harris-Foulkes estimate   =    -444.73768393 Ry
     estimated scf accuracy    <       0.00000040 Ry

     iteration #  9     ecut=    30.00 Ry     beta= 0.70
     Davidson diagonalization with overlap
     ethr =  7.26E-10,  avg # of iterations =  2.0

     total cpu time spent up to now is     2601.9 secs

     total energy              =    -444.73768377 Ry
     Harris-Foulkes estimate   =    -444.73768380 Ry
     estimated scf accuracy    <       0.00000009 Ry

     iteration # 10     ecut=    30.00 Ry     beta= 0.70
     Davidson diagonalization with overlap
     ethr =  1.76E-10,  avg # of iterations =  2.0

     total cpu time spent up to now is     2625.6 secs

     total energy              =    -444.73768377 Ry
     Harris-Foulkes estimate   =    -444.73768378 Ry
     estimated scf accuracy    <       0.00000002 Ry

     iteration # 11     ecut=    30.00 Ry     beta= 0.70
     Davidson diagonalization with overlap
     ethr =  4.02E-11,  avg # of iterations =  2.0

     total cpu time spent up to now is     2653.0 secs

     total energy              =    -444.73768377 Ry
     Harris-Foulkes estimate   =    -444.73768377 Ry
     estimated scf accuracy    <          8.8E-11 Ry

     iteration # 12     ecut=    30.00 Ry     beta= 0.70
     Davidson diagonalization with overlap
     ethr =  1.70E-13,  avg # of iterations =  3.0

     total cpu time spent up to now is     2684.2 secs

     total energy              =    -444.73768377 Ry
     Harris-Foulkes estimate   =    -444.73768377 Ry
     estimated scf accuracy    <          4.1E-11 Ry

     iteration # 13     ecut=    30.00 Ry     beta= 0.70
     Davidson diagonalization with overlap
     ethr =  1.00E-13,  avg # of iterations =  1.8

     total cpu time spent up to now is     2705.5 secs

     total energy              =    -444.73768377 Ry
     Harris-Foulkes estimate   =    -444.73768377 Ry
     estimated scf accuracy    <          6.0E-12 Ry

     iteration # 14     ecut=    30.00 Ry     beta= 0.70
     Davidson diagonalization with overlap
     ethr =  1.00E-13,  avg # of iterations =  1.0

     total cpu time spent up to now is     2725.7 secs

     End of self-consistent calculation

     Number of k-points >= 100: set verbosity='high' to print the bands.

     highest occupied level (ev):    19.7399

!    total energy              =    -444.73768377 Ry
     Harris-Foulkes estimate   =    -444.73768377 Ry
     estimated scf accuracy    <          8.6E-13 Ry

     The total energy is the sum of the following terms:

     one-electron contribution =     -34.68801146 Ry
     hartree contribution      =      76.20699075 Ry
     xc contribution           =    -124.73954393 Ry
     ewald contribution        =    -361.51711913 Ry

     convergence has been achieved in  14 iterations

     Forces acting on atoms (cartesian axes, Ry/au):

     atom    1 type  1   force =     0.00715633    0.00715633    0.00000000
     atom    2 type  1   force =     0.00165700    0.00165700    0.00000000
     atom    3 type  2   force =    -0.00003135   -0.00039559    0.00000000
     atom    4 type  2   force =    -0.00039559   -0.00003135    0.00000000
     atom    5 type  2   force =    -0.00404079   -0.00404079    0.00000000
     atom    6 type  2   force =    -0.00434561   -0.00434561    0.00000000

     Total force =     0.013366     Total SCF correction =     0.000003


     Computing stress (Cartesian axis) and pressure

          total   stress  (Ry/bohr**3)                   (kbar)     P=  -18.29
  -0.00013834   0.00000003  -0.00000000        -20.35      0.01     -0.00
   0.00000003  -0.00013834   0.00000000          0.01    -20.35      0.00
   0.00000000   0.00000000  -0.00009627          0.00      0.00    -14.16


     number of scf cycles    =   7
     number of bfgs steps    =   5

     enthalpy old            =    -444.7100205768 Ry
     enthalpy new            =    -444.7376837712 Ry

     CASE: enthalpy_new < enthalpy_old

     new trust radius        =       0.0072416235 bohr
     new conv_thr            =            1.0E-12 Ry

     new unit-cell volume =    299.56674 a.u.^3 (    44.39121 Ang^3 )
     density =     11.27505 g/cm^3

CELL_PARAMETERS (alat=  9.11000000)
   0.833039845   0.000000000   0.000000000
   0.000000000   0.833039845   0.000000000
   0.000000000   0.000000000   0.570961619

ATOMIC_POSITIONS (crystal)
Sn       0.000320036   0.000320036   0.000000000
Sn       0.500036029   0.500036029   0.500000000
O        0.800810101   0.197730012   0.500000000
O        0.197730012   0.800810101   0.500000000
O        0.301090804   0.301090804   0.000000000
O        0.698013018   0.698013018   0.000000000



     Writing output data file SnO2.save
     NEW-OLD atomic charge density approx. for the potential

     Check: negative/imaginary core charge=   -0.000460    0.000000
     extrapolated charge   51.94763, renormalised to   52.00000

     total cpu time spent up to now is     2737.8 secs

     Self-consistent Calculation

     iteration #  1     ecut=    30.00 Ry     beta= 0.70
     Davidson diagonalization with overlap
     ethr =  1.00E-06,  avg # of iterations =  3.6

     total cpu time spent up to now is     2779.0 secs

     total energy              =    -444.73754567 Ry
     Harris-Foulkes estimate   =    -444.79841578 Ry
     estimated scf accuracy    <       0.00007836 Ry

     iteration #  2     ecut=    30.00 Ry     beta= 0.70
     Davidson diagonalization with overlap
     ethr =  1.51E-07,  avg # of iterations =  3.0

     total cpu time spent up to now is     2813.2 secs

     total energy              =    -444.73764171 Ry
     Harris-Foulkes estimate   =    -444.73767523 Ry
     estimated scf accuracy    <       0.00007773 Ry

     iteration #  3     ecut=    30.00 Ry     beta= 0.70
     Davidson diagonalization with overlap
     ethr =  1.49E-07,  avg # of iterations =  2.0

     total cpu time spent up to now is     2836.7 secs

     total energy              =    -444.73764260 Ry
     Harris-Foulkes estimate   =    -444.73764783 Ry
     estimated scf accuracy    <       0.00001063 Ry

     iteration #  4     ecut=    30.00 Ry     beta= 0.70
     Davidson diagonalization with overlap
     ethr =  2.04E-08,  avg # of iterations =  2.0

     total cpu time spent up to now is     2862.9 secs

     total energy              =    -444.73764334 Ry
     Harris-Foulkes estimate   =    -444.73764389 Ry
     estimated scf accuracy    <       0.00000099 Ry

     iteration #  5     ecut=    30.00 Ry     beta= 0.70
     Davidson diagonalization with overlap
     ethr =  1.91E-09,  avg # of iterations =  2.2

     total cpu time spent up to now is     2891.3 secs

     total energy              =    -444.73764362 Ry
     Harris-Foulkes estimate   =    -444.73764365 Ry
     estimated scf accuracy    <       0.00000006 Ry

     iteration #  6     ecut=    30.00 Ry     beta= 0.70
     Davidson diagonalization with overlap
     ethr =  1.18E-10,  avg # of iterations =  2.0

     total cpu time spent up to now is     2917.3 secs

     total energy              =    -444.73764362 Ry
     Harris-Foulkes estimate   =    -444.73764363 Ry
     estimated scf accuracy    <       0.00000001 Ry

     iteration #  7     ecut=    30.00 Ry     beta= 0.70
     Davidson diagonalization with overlap
     ethr =  2.49E-11,  avg # of iterations =  2.0

     total cpu time spent up to now is     2946.4 secs

     total energy              =    -444.73764363 Ry
     Harris-Foulkes estimate   =    -444.73764363 Ry
     estimated scf accuracy    <          1.1E-09 Ry

     iteration #  8     ecut=    30.00 Ry     beta= 0.70
     Davidson diagonalization with overlap
     ethr =  2.13E-12,  avg # of iterations =  2.0

     total cpu time spent up to now is     2973.5 secs

     total energy              =    -444.73764363 Ry
     Harris-Foulkes estimate   =    -444.73764363 Ry
     estimated scf accuracy    <          9.4E-12 Ry

     iteration #  9     ecut=    30.00 Ry     beta= 0.70
     Davidson diagonalization with overlap
     ethr =  1.00E-13,  avg # of iterations =  1.7

     total cpu time spent up to now is     2994.5 secs

     total energy              =    -444.73764363 Ry
     Harris-Foulkes estimate   =    -444.73764363 Ry
     estimated scf accuracy    <          1.5E-12 Ry

     iteration # 10     ecut=    30.00 Ry     beta= 0.70
     Davidson diagonalization with overlap
     ethr =  1.00E-13,  avg # of iterations =  1.0

     total cpu time spent up to now is     3014.8 secs

     End of self-consistent calculation

     Number of k-points >= 100: set verbosity='high' to print the bands.

     highest occupied level (ev):    19.7702

!    total energy              =    -444.73764363 Ry
     Harris-Foulkes estimate   =    -444.73764363 Ry
     estimated scf accuracy    <          8.4E-14 Ry

     The total energy is the sum of the following terms:

     one-electron contribution =     -34.50236797 Ry
     hartree contribution      =      76.16374195 Ry
     xc contribution           =    -124.74909195 Ry
     ewald contribution        =    -361.64992566 Ry

     convergence has been achieved in  10 iterations

     Forces acting on atoms (cartesian axes, Ry/au):

     atom    1 type  1   force =    -0.01253866   -0.01253866    0.00000000
     atom    2 type  1   force =    -0.00208383   -0.00208383    0.00000000
     atom    3 type  2   force =    -0.00187223   -0.00203365    0.00000000
     atom    4 type  2   force =    -0.00203365   -0.00187223    0.00000000
     atom    5 type  2   force =     0.00943290    0.00943290    0.00000000
     atom    6 type  2   force =     0.00909548    0.00909548    0.00000000

     Total force =     0.026112     Total SCF correction =     0.000001


     Computing stress (Cartesian axis) and pressure

          total   stress  (Ry/bohr**3)                   (kbar)     P=    2.96
   0.00002512   0.00000157   0.00000000          3.69      0.23      0.00
   0.00000157   0.00002512   0.00000000          0.23      3.69      0.00
   0.00000000  -0.00000000   0.00001021          0.00     -0.00      1.50


     number of scf cycles    =   8
     number of bfgs steps    =   6

     enthalpy old            =    -444.7376837712 Ry
     enthalpy new            =    -444.7376436269 Ry

     CASE: enthalpy_new > enthalpy_old

     new trust radius        =       0.0029275407 bohr
     new conv_thr            =            1.0E-12 Ry

     new unit-cell volume =    299.74639 a.u.^3 (    44.41783 Ang^3 )
     density =     11.26829 g/cm^3

CELL_PARAMETERS (alat=  9.11000000)
   0.833288754   0.000000000   0.000000000
   0.000000000   0.833288754   0.000000000
   0.000000000   0.000000000   0.570962773

ATOMIC_POSITIONS (crystal)
Sn      -0.000081591  -0.000081591   0.000000000
Sn       0.499943396   0.499943396   0.500000000
O        0.800789756   0.197773190   0.500000000
O        0.197773190   0.800789756   0.500000000
O        0.301296436   0.301296436   0.000000000
O        0.698278814   0.698278814   0.000000000



     Writing output data file SnO2.save
     NEW-OLD atomic charge density approx. for the potential

     Check: negative/imaginary core charge=   -0.000461    0.000000
     extrapolated charge   52.03116, renormalised to   52.00000

     total cpu time spent up to now is     3026.7 secs

     Self-consistent Calculation

     iteration #  1     ecut=    30.00 Ry     beta= 0.70
     Davidson diagonalization with overlap
     ethr =  1.00E-06,  avg # of iterations =  3.0

     Threshold (ethr) on eigenvalues was too large:
     Diagonalizing with lowered threshold

     Davidson diagonalization with overlap
     ethr =  5.36E-08,  avg # of iterations =  1.0

     total cpu time spent up to now is     3085.3 secs

     total energy              =    -444.73768326 Ry
     Harris-Foulkes estimate   =    -444.70150830 Ry
     estimated scf accuracy    <       0.00002798 Ry

     iteration #  2     ecut=    30.00 Ry     beta= 0.70
     Davidson diagonalization with overlap
     ethr =  5.38E-08,  avg # of iterations =  3.0

     total cpu time spent up to now is     3119.5 secs

     total energy              =    -444.73771750 Ry
     Harris-Foulkes estimate   =    -444.73772949 Ry
     estimated scf accuracy    <       0.00002778 Ry

     iteration #  3     ecut=    30.00 Ry     beta= 0.70
     Davidson diagonalization with overlap
     ethr =  5.34E-08,  avg # of iterations =  2.0

     total cpu time spent up to now is     3143.8 secs

     total energy              =    -444.73771781 Ry
     Harris-Foulkes estimate   =    -444.73771969 Ry
     estimated scf accuracy    <       0.00000381 Ry

     iteration #  4     ecut=    30.00 Ry     beta= 0.70
     Davidson diagonalization with overlap
     ethr =  7.33E-09,  avg # of iterations =  2.0

     total cpu time spent up to now is     3169.3 secs

     total energy              =    -444.73771807 Ry
     Harris-Foulkes estimate   =    -444.73771827 Ry
     estimated scf accuracy    <       0.00000036 Ry

     iteration #  5     ecut=    30.00 Ry     beta= 0.70
     Davidson diagonalization with overlap
     ethr =  6.99E-10,  avg # of iterations =  2.2

     total cpu time spent up to now is     3197.9 secs

     total energy              =    -444.73771817 Ry
     Harris-Foulkes estimate   =    -444.73771818 Ry
     estimated scf accuracy    <       0.00000002 Ry

     iteration #  6     ecut=    30.00 Ry     beta= 0.70
     Davidson diagonalization with overlap
     ethr =  4.20E-11,  avg # of iterations =  2.0

     total cpu time spent up to now is     3223.8 secs

     total energy              =    -444.73771818 Ry
     Harris-Foulkes estimate   =    -444.73771818 Ry
     estimated scf accuracy    <          4.6E-09 Ry

     iteration #  7     ecut=    30.00 Ry     beta= 0.70
     Davidson diagonalization with overlap
     ethr =  8.85E-12,  avg # of iterations =  2.0

     total cpu time spent up to now is     3253.3 secs

     total energy              =    -444.73771818 Ry
     Harris-Foulkes estimate   =    -444.73771818 Ry
     estimated scf accuracy    <          3.4E-10 Ry

     iteration #  8     ecut=    30.00 Ry     beta= 0.70
     Davidson diagonalization with overlap
     ethr =  6.57E-13,  avg # of iterations =  2.0

     total cpu time spent up to now is     3280.1 secs

     total energy              =    -444.73771818 Ry
     Harris-Foulkes estimate   =    -444.73771818 Ry
     estimated scf accuracy    <          2.7E-12 Ry

     iteration #  9     ecut=    30.00 Ry     beta= 0.70
     Davidson diagonalization with overlap
     ethr =  1.00E-13,  avg # of iterations =  1.0

     total cpu time spent up to now is     3300.3 secs

     End of self-consistent calculation

     Number of k-points >= 100: set verbosity='high' to print the bands.

     highest occupied level (ev):    19.7522

!    total energy              =    -444.73771818 Ry
     Harris-Foulkes estimate   =    -444.73771818 Ry
     estimated scf accuracy    <          5.0E-13 Ry

     The total energy is the sum of the following terms:

     one-electron contribution =     -34.61240269 Ry
     hartree contribution      =      76.18923998 Ry
     xc contribution           =    -124.74338830 Ry
     ewald contribution        =    -361.57116717 Ry

     convergence has been achieved in   9 iterations

     Forces acting on atoms (cartesian axes, Ry/au):

     atom    1 type  1   force =    -0.00079698   -0.00079698    0.00000000
     atom    2 type  1   force =     0.00014424    0.00014424    0.00000000
     atom    3 type  2   force =    -0.00077708   -0.00105543    0.00000000
     atom    4 type  2   force =    -0.00105543   -0.00077708    0.00000000
     atom    5 type  2   force =     0.00136342    0.00136342    0.00000000
     atom    6 type  2   force =     0.00112184    0.00112184    0.00000000

     Total force =     0.003314     Total SCF correction =     0.000002


     Computing stress (Cartesian axis) and pressure

          total   stress  (Ry/bohr**3)                   (kbar)     P=   -9.75
  -0.00007273   0.00000012   0.00000000        -10.70      0.02      0.00
   0.00000012  -0.00007273  -0.00000000          0.02    -10.70     -0.00
   0.00000000   0.00000000  -0.00005330          0.00      0.00     -7.84


     number of scf cycles    =   9
     number of bfgs steps    =   6

     enthalpy old            =    -444.7376837712 Ry
     enthalpy new            =    -444.7377181769 Ry

     CASE: enthalpy_new < enthalpy_old

     new trust radius        =       0.0011046031 bohr
     new conv_thr            =            1.0E-12 Ry

     new unit-cell volume =    299.57876 a.u.^3 (    44.39299 Ang^3 )
     density =     11.27459 g/cm^3

CELL_PARAMETERS (alat=  9.11000000)
   0.833055591   0.000000000   0.000000000
   0.000000000   0.833055591   0.000000000
   0.000000000   0.000000000   0.570962949

ATOMIC_POSITIONS (crystal)
Sn      -0.000073948  -0.000073948   0.000000000
Sn       0.499975039   0.499975039   0.500000000
O        0.800743328   0.197648613   0.500000000
O        0.197648613   0.800743328   0.500000000
O        0.301399327   0.301399327   0.000000000
O        0.698307641   0.698307641   0.000000000



     Writing output data file SnO2.save
     NEW-OLD atomic charge density approx. for the potential

     Check: negative/imaginary core charge=   -0.000460    0.000000
     extrapolated charge   51.97091, renormalised to   52.00000

     total cpu time spent up to now is     3312.2 secs

     Self-consistent Calculation

     iteration #  1     ecut=    30.00 Ry     beta= 0.70
     Davidson diagonalization with overlap
     ethr =  1.00E-06,  avg # of iterations =  2.0

     Threshold (ethr) on eigenvalues was too large:
     Diagonalizing with lowered threshold

     Davidson diagonalization with overlap
     ethr =  3.62E-08,  avg # of iterations =  1.9

     total cpu time spent up to now is     3362.6 secs

     total energy              =    -444.73769758 Ry
     Harris-Foulkes estimate   =    -444.77149657 Ry
     estimated scf accuracy    <       0.00001933 Ry

     iteration #  2     ecut=    30.00 Ry     beta= 0.70
     Davidson diagonalization with overlap
     ethr =  3.72E-08,  avg # of iterations =  3.0

     total cpu time spent up to now is     3398.5 secs

     total energy              =    -444.73772709 Ry
     Harris-Foulkes estimate   =    -444.73773697 Ry
     estimated scf accuracy    <       0.00002365 Ry

     iteration #  3     ecut=    30.00 Ry     beta= 0.70
     Davidson diagonalization with overlap
     ethr =  3.72E-08,  avg # of iterations =  2.0

     total cpu time spent up to now is     3422.5 secs

     total energy              =    -444.73772734 Ry
     Harris-Foulkes estimate   =    -444.73772876 Ry
     estimated scf accuracy    <       0.00000376 Ry

     iteration #  4     ecut=    30.00 Ry     beta= 0.70
     Davidson diagonalization with overlap
     ethr =  7.23E-09,  avg # of iterations =  1.1

     total cpu time spent up to now is     3442.8 secs

     total energy              =    -444.73772689 Ry
     Harris-Foulkes estimate   =    -444.73772754 Ry
     estimated scf accuracy    <       0.00000110 Ry

     iteration #  5     ecut=    30.00 Ry     beta= 0.70
     Davidson diagonalization with overlap
     ethr =  2.12E-09,  avg # of iterations =  2.0

     total cpu time spent up to now is     3472.7 secs

     total energy              =    -444.73772715 Ry
     Harris-Foulkes estimate   =    -444.73772715 Ry
     estimated scf accuracy    <       0.00000001 Ry

     iteration #  6     ecut=    30.00 Ry     beta= 0.70
     Davidson diagonalization with overlap
     ethr =  2.57E-11,  avg # of iterations =  2.0

     total cpu time spent up to now is     3500.1 secs

     total energy              =    -444.73772715 Ry
     Harris-Foulkes estimate   =    -444.73772715 Ry
     estimated scf accuracy    <          3.6E-09 Ry

     iteration #  7     ecut=    30.00 Ry     beta= 0.70
     Davidson diagonalization with overlap
     ethr =  6.93E-12,  avg # of iterations =  2.0

     total cpu time spent up to now is     3527.6 secs

     total energy              =    -444.73772715 Ry
     Harris-Foulkes estimate   =    -444.73772715 Ry
     estimated scf accuracy    <          4.2E-10 Ry

     iteration #  8     ecut=    30.00 Ry     beta= 0.70
     Davidson diagonalization with overlap
     ethr =  8.03E-13,  avg # of iterations =  2.0

     total cpu time spent up to now is     3555.0 secs

     total energy              =    -444.73772715 Ry
     Harris-Foulkes estimate   =    -444.73772715 Ry
     estimated scf accuracy    <          7.9E-12 Ry

     iteration #  9     ecut=    30.00 Ry     beta= 0.70
     Davidson diagonalization with overlap
     ethr =  1.00E-13,  avg # of iterations =  1.9

     total cpu time spent up to now is     3577.2 secs

     total energy              =    -444.73772715 Ry
     Harris-Foulkes estimate   =    -444.73772715 Ry
     estimated scf accuracy    <          1.5E-11 Ry

     iteration # 10     ecut=    30.00 Ry     beta= 0.70
     Davidson diagonalization with overlap
     ethr =  1.00E-13,  avg # of iterations =  1.0

     total cpu time spent up to now is     3597.6 secs

     End of self-consistent calculation

     Number of k-points >= 100: set verbosity='high' to print the bands.

     highest occupied level (ev):    19.7692

!    total energy              =    -444.73772715 Ry
     Harris-Foulkes estimate   =    -444.73772715 Ry
     estimated scf accuracy    <          4.7E-13 Ry

     The total energy is the sum of the following terms:

     one-electron contribution =     -34.51035418 Ry
     hartree contribution      =      76.16584407 Ry
     xc contribution           =    -124.74870327 Ry
     ewald contribution        =    -361.64451377 Ry

     convergence has been achieved in  10 iterations

     Forces acting on atoms (cartesian axes, Ry/au):

     atom    1 type  1   force =     0.00061272    0.00061272    0.00000000
     atom    2 type  1   force =     0.00074129    0.00074129    0.00000000
     atom    3 type  2   force =    -0.00104202   -0.00088903    0.00000000
[...]
     atom    3 type  2   force =    -0.00000050   -0.00011830    0.00000000
     atom    4 type  2   force =    -0.00011830   -0.00000050    0.00000000
     atom    5 type  2   force =    -0.00027520   -0.00027520    0.00000000
     atom    6 type  2   force =    -0.00053554   -0.00053554    0.00000000

     Total force =     0.001336     Total SCF correction =     0.000001


     Computing stress (Cartesian axis) and pressure

          total   stress  (Ry/bohr**3)                   (kbar)     P=   -1.17
  -0.00000493   0.00316309   0.00000000         -0.72    465.31      0.00
   0.00316309  -0.00000493  -0.00000000        465.31     -0.72     -0.00
   0.00000000  -0.00000000  -0.00001391          0.00     -0.00     -2.05


     number of scf cycles    =  39
     number of bfgs steps    =  31

     enthalpy old            =    -444.8489430092 Ry
     enthalpy new            =    -444.8489611776 Ry

     CASE: enthalpy_new < enthalpy_old

     new trust radius        =       0.0007279675 bohr
     new conv_thr            =            1.0E-12 Ry

     new unit-cell volume =    294.24319 a.u.^3 (    43.60234 Ang^3 )
     density =     11.47904 g/cm^3

CELL_PARAMETERS (alat=  9.11000000)
   0.825682911   0.000000000   0.000000000
   0.000000000   0.825682911   0.000000000
   0.000000000   0.000000000   0.570853537

ATOMIC_POSITIONS (crystal)
Sn       0.035713985   0.035713985   0.000000000
Sn       0.544229864   0.544229864   0.500000000
O        0.729893271   0.132233016   0.500000000
O        0.132233016   0.729893271   0.500000000
O        0.332207256   0.332207256   0.000000000
O        0.723722608   0.723722608   0.000000000



     Writing output data file SnO2.save
     NEW-OLD atomic charge density approx. for the potential

     Check: negative/imaginary core charge=   -0.000440    0.000000
     extrapolated charge   51.99592, renormalised to   52.00000

     total cpu time spent up to now is    12759.8 secs

     Self-consistent Calculation

     iteration #  1     ecut=    30.00 Ry     beta= 0.70
     Davidson diagonalization with overlap
     ethr =  1.00E-06,  avg # of iterations =  2.2

     Threshold (ethr) on eigenvalues was too large:
     Diagonalizing with lowered threshold

     Davidson diagonalization with overlap
     ethr =  7.82E-10,  avg # of iterations =  3.0

     total cpu time spent up to now is    12818.7 secs

     total energy              =    -444.84896092 Ry
     Harris-Foulkes estimate   =    -444.85294231 Ry
     estimated scf accuracy    <       0.00000051 Ry

     iteration #  2     ecut=    30.00 Ry     beta= 0.70
     Davidson diagonalization with overlap
     ethr =  9.81E-10,  avg # of iterations =  3.0

     total cpu time spent up to now is    12853.7 secs

     total energy              =    -444.84896149 Ry
     Harris-Foulkes estimate   =    -444.84896178 Ry
     estimated scf accuracy    <       0.00000070 Ry

     iteration #  3     ecut=    30.00 Ry     beta= 0.70
     Davidson diagonalization with overlap
     ethr =  9.81E-10,  avg # of iterations =  2.0

     total cpu time spent up to now is    12878.7 secs

     total energy              =    -444.84896152 Ry
     Harris-Foulkes estimate   =    -444.84896156 Ry
     estimated scf accuracy    <       0.00000008 Ry

     iteration #  4     ecut=    30.00 Ry     beta= 0.70
     Davidson diagonalization with overlap
     ethr =  1.58E-10,  avg # of iterations =  2.0

     total cpu time spent up to now is    12902.4 secs

     total energy              =    -444.84896152 Ry
     Harris-Foulkes estimate   =    -444.84896153 Ry
     estimated scf accuracy    <       0.00000002 Ry

     iteration #  5     ecut=    30.00 Ry     beta= 0.70
     Davidson diagonalization with overlap
     ethr =  4.08E-11,  avg # of iterations =  2.4

     total cpu time spent up to now is    12931.8 secs

     total energy              =    -444.84896153 Ry
     Harris-Foulkes estimate   =    -444.84896153 Ry
     estimated scf accuracy    <          3.9E-10 Ry

     iteration #  6     ecut=    30.00 Ry     beta= 0.70
     Davidson diagonalization with overlap
     ethr =  7.42E-13,  avg # of iterations =  2.8

     total cpu time spent up to now is    12959.2 secs

     total energy              =    -444.84896153 Ry
     Harris-Foulkes estimate   =    -444.84896153 Ry
     estimated scf accuracy    <          1.5E-10 Ry

     iteration #  7     ecut=    30.00 Ry     beta= 0.70
     Davidson diagonalization with overlap
     ethr =  2.81E-13,  avg # of iterations =  2.0

     total cpu time spent up to now is    12986.0 secs

     total energy              =    -444.84896153 Ry
     Harris-Foulkes estimate   =    -444.84896153 Ry
     estimated scf accuracy    <          9.4E-12 Ry

     iteration #  8     ecut=    30.00 Ry     beta= 0.70
     Davidson diagonalization with overlap
     ethr =  1.00E-13,  avg # of iterations =  1.5

     total cpu time spent up to now is    13007.1 secs

     End of self-consistent calculation

     Number of k-points >= 100: set verbosity='high' to print the bands.

     highest occupied level (ev):    20.5571

!    total energy              =    -444.84896153 Ry
     Harris-Foulkes estimate   =    -444.84896153 Ry
     estimated scf accuracy    <          3.0E-13 Ry

     The total energy is the sum of the following terms:

     one-electron contribution =     -22.45961730 Ry
     hartree contribution      =      71.23968972 Ry
     xc contribution           =    -124.53661952 Ry
     ewald contribution        =    -369.09241443 Ry

     convergence has been achieved in   8 iterations

     Forces acting on atoms (cartesian axes, Ry/au):

     atom    1 type  1   force =    -0.00001841   -0.00001841    0.00000000
     atom    2 type  1   force =    -0.00022343   -0.00022343    0.00000000
     atom    3 type  2   force =     0.00005229   -0.00005400    0.00000000
     atom    4 type  2   force =    -0.00005400    0.00005229    0.00000000
     atom    5 type  2   force =    -0.00002942   -0.00002942    0.00000000
     atom    6 type  2   force =     0.00027296    0.00027296    0.00000000

     Total force =     0.000512     Total SCF correction =     0.000002


     Computing stress (Cartesian axis) and pressure

          total   stress  (Ry/bohr**3)                   (kbar)     P=    0.24
   0.00000199   0.00316626   0.00000000          0.29    465.77      0.00
   0.00316626   0.00000199   0.00000000        465.77      0.29      0.00
   0.00000000   0.00000000   0.00000081          0.00      0.00      0.12


     number of scf cycles    =  40
     number of bfgs steps    =  32

     enthalpy old            =    -444.8489611776 Ry
     enthalpy new            =    -444.8489615256 Ry

     CASE: enthalpy_new < enthalpy_old

     new trust radius        =       0.0002144024 bohr
     new conv_thr            =            1.0E-12 Ry

     new unit-cell volume =    294.24697 a.u.^3 (    43.60290 Ang^3 )
     density =     11.47889 g/cm^3

CELL_PARAMETERS (alat=  9.11000000)
   0.825696024   0.000000000   0.000000000
   0.000000000   0.825696024   0.000000000
   0.000000000   0.000000000   0.570842750

ATOMIC_POSITIONS (crystal)
Sn       0.035718008   0.035718008   0.000000000
Sn       0.544209709   0.544209709   0.500000000
O        0.729902960   0.132231284   0.500000000
O        0.132231284   0.729902960   0.500000000
O        0.332200980   0.332200980   0.000000000
O        0.723737060   0.723737060   0.000000000



     Writing output data file SnO2.save
     NEW-OLD atomic charge density approx. for the potential

     Check: negative/imaginary core charge=   -0.000440    0.000000
     extrapolated charge   52.00067, renormalised to   52.00000

     total cpu time spent up to now is    13019.0 secs

     Self-consistent Calculation

     iteration #  1     ecut=    30.00 Ry     beta= 0.70
     Davidson diagonalization with overlap
     ethr =  1.00E-06,  avg # of iterations =  2.0

     Threshold (ethr) on eigenvalues was too large:
     Diagonalizing with lowered threshold

     Davidson diagonalization with overlap
     ethr =  3.43E-10,  avg # of iterations =  3.0

     total cpu time spent up to now is    13078.3 secs

     total energy              =    -444.84896157 Ry
     Harris-Foulkes estimate   =    -444.84830850 Ry
     estimated scf accuracy    <       0.00000003 Ry

     iteration #  2     ecut=    30.00 Ry     beta= 0.70
     Davidson diagonalization with overlap
     ethr =  6.13E-11,  avg # of iterations =  3.0

     total cpu time spent up to now is    13111.6 secs

     total energy              =    -444.84896159 Ry
     Harris-Foulkes estimate   =    -444.84896160 Ry
     estimated scf accuracy    <       0.00000002 Ry

     iteration #  3     ecut=    30.00 Ry     beta= 0.70
     Davidson diagonalization with overlap
     ethr =  4.61E-11,  avg # of iterations =  2.2

     total cpu time spent up to now is    13137.7 secs

     total energy              =    -444.84896159 Ry
     Harris-Foulkes estimate   =    -444.84896159 Ry
     estimated scf accuracy    <          1.5E-09 Ry

     iteration #  4     ecut=    30.00 Ry     beta= 0.70
     Davidson diagonalization with overlap
     ethr =  2.89E-12,  avg # of iterations =  2.2

     total cpu time spent up to now is    13166.9 secs

     total energy              =    -444.84896159 Ry
     Harris-Foulkes estimate   =    -444.84896159 Ry
     estimated scf accuracy    <          3.4E-10 Ry

     iteration #  5     ecut=    30.00 Ry     beta= 0.70
     Davidson diagonalization with overlap
     ethr =  6.54E-13,  avg # of iterations =  3.0

     total cpu time spent up to now is    13195.2 secs

     total energy              =    -444.84896159 Ry
     Harris-Foulkes estimate   =    -444.84896159 Ry
     estimated scf accuracy    <          3.2E-11 Ry

     iteration #  6     ecut=    30.00 Ry     beta= 0.70
     Davidson diagonalization with overlap
     ethr =  1.00E-13,  avg # of iterations =  2.1

     total cpu time spent up to now is    13220.0 secs

     total energy              =    -444.84896159 Ry
     Harris-Foulkes estimate   =    -444.84896159 Ry
     estimated scf accuracy    <          3.6E-12 Ry

     iteration #  7     ecut=    30.00 Ry     beta= 0.70
     Davidson diagonalization with overlap
     ethr =  1.00E-13,  avg # of iterations =  1.0

     total cpu time spent up to now is    13240.7 secs

     End of self-consistent calculation

     Number of k-points >= 100: set verbosity='high' to print the bands.

     highest occupied level (ev):    20.5567

!    total energy              =    -444.84896159 Ry
     Harris-Foulkes estimate   =    -444.84896159 Ry
     estimated scf accuracy    <          4.4E-13 Ry

     The total energy is the sum of the following terms:

     one-electron contribution =     -22.46270989 Ry
     hartree contribution      =      71.24061533 Ry
     xc contribution           =    -124.53655028 Ry
     ewald contribution        =    -369.09031675 Ry

     convergence has been achieved in   7 iterations

     Forces acting on atoms (cartesian axes, Ry/au):

     atom    1 type  1   force =    -0.00005636   -0.00005636    0.00000000
     atom    2 type  1   force =     0.00001819    0.00001819    0.00000000
     atom    3 type  2   force =    -0.00001204    0.00003106    0.00000000
     atom    4 type  2   force =     0.00003106   -0.00001204    0.00000000
     atom    5 type  2   force =     0.00001544    0.00001544    0.00000000
     atom    6 type  2   force =     0.00000371    0.00000371    0.00000000

     Total force =     0.000099     Total SCF correction =     0.000004


     Computing stress (Cartesian axis) and pressure

          total   stress  (Ry/bohr**3)                   (kbar)     P=    0.05
  -0.00000000   0.00316658   0.00000000         -0.00    465.82      0.00
   0.00316658  -0.00000000   0.00000000        465.82     -0.00      0.00
   0.00000000   0.00000000   0.00000107          0.00      0.00      0.16


     number of scf cycles    =  41
     number of bfgs steps    =  33

     enthalpy old            =    -444.8489615256 Ry
     enthalpy new            =    -444.8489615930 Ry

     CASE: enthalpy_new < enthalpy_old

     small trust_radius: resetting bfgs history

     new trust radius        =       0.0000915402 bohr
     new conv_thr            =            1.0E-12 Ry

     new unit-cell volume =    294.25479 a.u.^3 (    43.60406 Ang^3 )
     density =     11.47859 g/cm^3

CELL_PARAMETERS (alat=  9.11000000)
   0.825695978   0.000000000   0.000000000
   0.000000000   0.825695978   0.000000000
   0.000000000   0.000000000   0.570857981

ATOMIC_POSITIONS (crystal)
Sn       0.035710515   0.035710515   0.000000000
Sn       0.544212126   0.544212126   0.500000000
O        0.729901359   0.132235414   0.500000000
O        0.132235414   0.729901359   0.500000000
O        0.332203032   0.332203032   0.000000000
O        0.723737553   0.723737553   0.000000000



     Writing output data file SnO2.save
     NEW-OLD atomic charge density approx. for the potential

     Check: negative/imaginary core charge=   -0.000440    0.000000
     extrapolated charge   52.00138, renormalised to   52.00000

     total cpu time spent up to now is    13252.2 secs

     Self-consistent Calculation

     iteration #  1     ecut=    30.00 Ry     beta= 0.70
     Davidson diagonalization with overlap
     ethr =  1.00E-06,  avg # of iterations =  1.0

     Threshold (ethr) on eigenvalues was too large:
     Diagonalizing with lowered threshold

     Davidson diagonalization with overlap
     ethr =  2.04E-10,  avg # of iterations =  3.0

     total cpu time spent up to now is    13307.5 secs

     total energy              =    -444.84896150 Ry
     Harris-Foulkes estimate   =    -444.84761237 Ry
     estimated scf accuracy    <       0.00000005 Ry

     iteration #  2     ecut=    30.00 Ry     beta= 0.70
     Davidson diagonalization with overlap
     ethr =  8.96E-11,  avg # of iterations =  3.1

     total cpu time spent up to now is    13344.0 secs

     total energy              =    -444.84896157 Ry
     Harris-Foulkes estimate   =    -444.84896160 Ry
     estimated scf accuracy    <       0.00000007 Ry

     iteration #  3     ecut=    30.00 Ry     beta= 0.70
     Davidson diagonalization with overlap
     ethr =  8.96E-11,  avg # of iterations =  2.0

     total cpu time spent up to now is    13369.0 secs

     total energy              =    -444.84896157 Ry
     Harris-Foulkes estimate   =    -444.84896157 Ry
     estimated scf accuracy    <       0.00000001 Ry

     iteration #  4     ecut=    30.00 Ry     beta= 0.70
     Davidson diagonalization with overlap
     ethr =  1.94E-11,  avg # of iterations =  1.0

     total cpu time spent up to now is    13389.0 secs

     total energy              =    -444.84896157 Ry
     Harris-Foulkes estimate   =    -444.84896157 Ry
     estimated scf accuracy    <          4.3E-09 Ry

     iteration #  5     ecut=    30.00 Ry     beta= 0.70
     Davidson diagonalization with overlap
     ethr =  8.32E-12,  avg # of iterations =  2.0

     total cpu time spent up to now is    13418.4 secs

     total energy              =    -444.84896157 Ry
     Harris-Foulkes estimate   =    -444.84896157 Ry
     estimated scf accuracy    <          5.2E-11 Ry

     iteration #  6     ecut=    30.00 Ry     beta= 0.70
     Davidson diagonalization with overlap
     ethr =  1.00E-13,  avg # of iterations =  3.0

     total cpu time spent up to now is    13450.4 secs

     total energy              =    -444.84896157 Ry
     Harris-Foulkes estimate   =    -444.84896157 Ry
     estimated scf accuracy    <          1.5E-11 Ry

     iteration #  7     ecut=    30.00 Ry     beta= 0.70
     Davidson diagonalization with overlap
     ethr =  1.00E-13,  avg # of iterations =  1.2

     total cpu time spent up to now is    13471.0 secs

     total energy              =    -444.84896157 Ry
     Harris-Foulkes estimate   =    -444.84896157 Ry
     estimated scf accuracy    <          4.0E-12 Ry

     iteration #  8     ecut=    30.00 Ry     beta= 0.70
     Davidson diagonalization with overlap
     ethr =  1.00E-13,  avg # of iterations =  1.0

     total cpu time spent up to now is    13491.0 secs

     End of self-consistent calculation

     Number of k-points >= 100: set verbosity='high' to print the bands.

     highest occupied level (ev):    20.5561

!    total energy              =    -444.84896157 Ry
     Harris-Foulkes estimate   =    -444.84896157 Ry
     estimated scf accuracy    <          1.5E-13 Ry

     The total energy is the sum of the following terms:

     one-electron contribution =     -22.46727285 Ry
     hartree contribution      =      71.24161148 Ry
     xc contribution           =    -124.53629723 Ry
     ewald contribution        =    -369.08700298 Ry

     convergence has been achieved in   8 iterations

     Forces acting on atoms (cartesian axes, Ry/au):

     atom    1 type  1   force =     0.00010511    0.00010511    0.00000000
     atom    2 type  1   force =     0.00002891    0.00002891    0.00000000
     atom    3 type  2   force =     0.00003235   -0.00001675    0.00000000
     atom    4 type  2   force =    -0.00001675    0.00003235    0.00000000
     atom    5 type  2   force =    -0.00006187   -0.00006187    0.00000000
     atom    6 type  2   force =    -0.00008775   -0.00008775    0.00000000

     Total force =     0.000222     Total SCF correction =     0.000001


     Computing stress (Cartesian axis) and pressure

          total   stress  (Ry/bohr**3)                   (kbar)     P=   -0.55
  -0.00000238   0.00316562  -0.00000000         -0.35    465.68     -0.00
   0.00316562  -0.00000238   0.00000000        465.68     -0.35      0.00
   0.00000000   0.00000000  -0.00000646          0.00      0.00     -0.95


     number of scf cycles    =  42
     number of bfgs steps    =  34

     enthalpy old            =    -444.8489615929 Ry
     enthalpy new            =    -444.8489615694 Ry

     CASE: enthalpy_new > enthalpy_old

     new trust radius        =       0.0000198980 bohr

     trust_radius < trust_radius_min

     resetting bfgs history

     Message from routine bfgs:
     history already reset at previous step: stopping
     new conv_thr            =            1.0E-12 Ry

     new unit-cell volume =    294.25479 a.u.^3 (    43.60406 Ang^3 )
     density =     11.47859 g/cm^3

CELL_PARAMETERS (alat=  9.11000000)
   0.825695978   0.000000000   0.000000000
   0.000000000   0.825695978   0.000000000
   0.000000000   0.000000000   0.570857981

ATOMIC_POSITIONS (crystal)
Sn       0.035710515   0.035710515   0.000000000
Sn       0.544212126   0.544212126   0.500000000
O        0.729901359   0.132235414   0.500000000
O        0.132235414   0.729901359   0.500000000
O        0.332203032   0.332203032   0.000000000
O        0.723737553   0.723737553   0.000000000



     Writing output data file SnO2.save
     NEW-OLD atomic charge density approx. for the potential

     Check: negative/imaginary core charge=   -0.000440    0.000000

     total cpu time spent up to now is    13502.7 secs

     Self-consistent Calculation

     iteration #  1     ecut=    30.00 Ry     beta= 0.70
     Davidson diagonalization with overlap
     ethr =  1.00E-06,  avg # of iterations =  1.0

     Threshold (ethr) on eigenvalues was too large:
     Diagonalizing with lowered threshold

     Davidson diagonalization with overlap

 %%%%%%%%%%%%%%%%%%%%%%%%%%%%%%%%%%%%%%%%%%%%%%%%%%%%%%%%%%%%%%%%%%%%%%%%%%%%%%
     Error in routine c_bands (1):
     too many bands are not converged
 %%%%%%%%%%%%%%%%%%%%%%%%%%%%%%%%%%%%%%%%%%%%%%%%%%%%%%%%%%%%%%%%%%%%%%%%%%%%%%

     stopping ...

 %%%%%%%%%%%%%%%%%%%%%%%%%%%%%%%%%%%%%%%%%%%%%%%%%%%%%%%%%%%%%%%%%%%%%%%%%%%%%%
     Error in routine c_bands (1):
     too many bands are not converged
 %%%%%%%%%%%%%%%%%%%%%%%%%%%%%%%%%%%%%%%%%%%%%%%%%%%%%%%%%%%%%%%%%%%%%%%%%%%%%%

     stopping ...
