
     Program PWSCF v.6.2.2 starts on  8Apr2018 at 15:40:44 

     This program is part of the open-source Quantum ESPRESSO suite
     for quantum simulation of materials; please cite
         "P. Giannozzi et al., J. Phys.:Condens. Matter 21 395502 (2009);
         "P. Giannozzi et al., J. Phys.:Condens. Matter 29 465901 (2017);
          URL http://www.quantum-espresso.org", 
     in publications or presentations arising from this work. More details at
     http://www.quantum-espresso.org/quote

     Parallel version (MPI), running on     2 processors

     MPI processes distributed on     1 nodes
     R & G space division:  proc/nbgrp/npool/nimage =       2
     Reading input from Conv_acell-ecut.in

     Current dimensions of program PWSCF are:
     Max number of different atomic species (ntypx) = 10
     Max number of k-points (npk) =  40000
     Max angular momentum in pseudopotentials (lmaxx) =  3

     Subspace diagonalization in iterative solution of the eigenvalue problem:
     a serial algorithm will be used

 
     Parallelization info
     --------------------
     sticks:   dense  smooth     PW     G-vecs:    dense   smooth      PW
     Min         258     258     88                 3058     3058     592
     Max         259     259     89                 3059     3059     595
     Sum         517     517    177                 6117     6117    1187
 


     bravais-lattice index     =            6
     lattice parameter (alat)  =       9.1100  a.u.
     unit-cell volume          =     506.5589 (a.u.)^3
     number of atoms/cell      =            6
     number of atomic types    =            2
     number of electrons       =        52.00
     number of Kohn-Sham states=           26
     kinetic-energy cutoff     =      20.0000  Ry
     charge density cutoff     =      80.0000  Ry
     convergence threshold     =      1.0E-12
     mixing beta               =       0.7000
     number of iterations used =            8  plain     mixing
     Exchange-correlation      = PBE ( 1  4  3  4 0 0)
     nstep                     =           50


     celldm(1)=   9.110000  celldm(2)=   0.000000  celldm(3)=   0.670000
     celldm(4)=   0.000000  celldm(5)=   0.000000  celldm(6)=   0.000000

     crystal axes: (cart. coord. in units of alat)
               a(1) = (   1.000000   0.000000   0.000000 )  
               a(2) = (   0.000000   1.000000   0.000000 )  
               a(3) = (   0.000000   0.000000   0.670000 )  

     reciprocal axes: (cart. coord. in units 2 pi/alat)
               b(1) = (  1.000000  0.000000  0.000000 )  
               b(2) = (  0.000000  1.000000  0.000000 )  
               b(3) = (  0.000000  0.000000  1.492537 )  


     PseudoPot. # 1 for Sn read from file:
     ../../Pseudo_potentials/Sn_PBE.upf
     MD5 check sum: 78e6386ae56e929f0568ae8bf606a80c
     Pseudo is Norm-conserving + core correction, Zval = 14.0
     Generated using ONCVPSP code by D. R. Hamann
     Using radial grid of 1628 points,  6 beta functions with: 
                l(1) =   0
                l(2) =   0
                l(3) =   1
                l(4) =   1
                l(5) =   2
                l(6) =   2

     PseudoPot. # 2 for O  read from file:
     ../../Pseudo_potentials/O_PBE.upf
     MD5 check sum: 3e3f909f7470e8921608ab6b1f57bbae
     Pseudo is Norm-conserving + core correction, Zval =  6.0
     Generated using ONCVPSP code by D. R. Hamann
     Using radial grid of  936 points,  5 beta functions with: 
                l(1) =   0
                l(2) =   0
                l(3) =   1
                l(4) =   1
                l(5) =   2

     atomic species   valence    mass     pseudopotential
        Sn            14.00   118.71000     Sn( 1.00)
        O              6.00    15.99900     O ( 1.00)

      4 Sym. Ops. (no inversion) found



   Cartesian axes

     site n.     atom                  positions (alat units)
         1           Sn  tau(   1) = (   0.0000000   0.0000000   0.0000000  )
         2           Sn  tau(   2) = (   0.5000000   0.5000000   0.3350000  )
         3           O   tau(   3) = (   0.8060000   0.1930000   0.3350000  )
         4           O   tau(   4) = (   0.1930000   0.8060000   0.3350000  )
         5           O   tau(   5) = (   0.3060000   0.3060000   0.0000000  )
         6           O   tau(   6) = (   0.6930000   0.6930000   0.0000000  )

     number of k points=   301

     Number of k-points >= 100: set verbosity='high' to print them.

     Dense  grid:     6117 G-vectors     FFT dimensions: (  25,  25,  18)

     Estimated max dynamical RAM per process >      53.94 MB

     Estimated total dynamical RAM >     107.88 MB

     Check: negative/imaginary core charge=   -0.003797    0.000000

     Initial potential from superposition of free atoms
     Check: negative starting charge=   -0.016581

     starting charge   51.99690, renormalised to   52.00000

     negative rho (up, down):  1.658E-02 0.000E+00
     Starting wfc are   34 randomized atomic wfcs

     total cpu time spent up to now is        6.3 secs

     Self-consistent Calculation

     iteration #  1     ecut=    20.00 Ry     beta= 0.70
     Davidson diagonalization with overlap
     ethr =  1.00E-02,  avg # of iterations =  2.0

     negative rho (up, down):  4.941E-03 0.000E+00

     total cpu time spent up to now is       23.0 secs

     total energy              =    -416.05808125 Ry
     Harris-Foulkes estimate   =    -423.36710063 Ry
     estimated scf accuracy    <       9.82711823 Ry

     iteration #  2     ecut=    20.00 Ry     beta= 0.70
     Davidson diagonalization with overlap
     ethr =  1.00E-02,  avg # of iterations =  2.1

     negative rho (up, down):  1.393E-03 0.000E+00

     total cpu time spent up to now is       39.5 secs

     total energy              =    -417.82864639 Ry
     Harris-Foulkes estimate   =    -418.10918563 Ry
     estimated scf accuracy    <       0.53067122 Ry

     iteration #  3     ecut=    20.00 Ry     beta= 0.70
     Davidson diagonalization with overlap
     ethr =  1.02E-03,  avg # of iterations =  2.4

     negative rho (up, down):  1.710E-04 0.000E+00

     total cpu time spent up to now is       54.7 secs

     total energy              =    -417.89804836 Ry
     Harris-Foulkes estimate   =    -417.93432081 Ry
     estimated scf accuracy    <       0.07141686 Ry

     iteration #  4     ecut=    20.00 Ry     beta= 0.70
     Davidson diagonalization with overlap
     ethr =  1.37E-04,  avg # of iterations =  2.5

     total cpu time spent up to now is       71.4 secs

     total energy              =    -417.91164646 Ry
     Harris-Foulkes estimate   =    -417.91757468 Ry
     estimated scf accuracy    <       0.01099342 Ry

     iteration #  5     ecut=    20.00 Ry     beta= 0.70
     Davidson diagonalization with overlap
     ethr =  2.11E-05,  avg # of iterations =  3.0

     total cpu time spent up to now is       88.4 secs

     total energy              =    -417.91423018 Ry
     Harris-Foulkes estimate   =    -417.91433777 Ry
     estimated scf accuracy    <       0.00029616 Ry

     iteration #  6     ecut=    20.00 Ry     beta= 0.70
     Davidson diagonalization with overlap
     ethr =  5.70E-07,  avg # of iterations =  3.1

     total cpu time spent up to now is      105.0 secs

     total energy              =    -417.91435760 Ry
     Harris-Foulkes estimate   =    -417.91436345 Ry
     estimated scf accuracy    <       0.00001099 Ry

     iteration #  7     ecut=    20.00 Ry     beta= 0.70
     Davidson diagonalization with overlap
     ethr =  2.11E-08,  avg # of iterations =  3.7

     total cpu time spent up to now is      124.9 secs

     total energy              =    -417.91435953 Ry
     Harris-Foulkes estimate   =    -417.91436384 Ry
     estimated scf accuracy    <       0.00001131 Ry

     iteration #  8     ecut=    20.00 Ry     beta= 0.70
     Davidson diagonalization with overlap
     ethr =  2.11E-08,  avg # of iterations =  3.2

     total cpu time spent up to now is      140.6 secs

     total energy              =    -417.91436136 Ry
     Harris-Foulkes estimate   =    -417.91436147 Ry
     estimated scf accuracy    <       0.00000024 Ry

     iteration #  9     ecut=    20.00 Ry     beta= 0.70
     Davidson diagonalization with overlap
     ethr =  4.58E-10,  avg # of iterations =  3.5

     total cpu time spent up to now is      159.4 secs

     total energy              =    -417.91436144 Ry
     Harris-Foulkes estimate   =    -417.91436148 Ry
     estimated scf accuracy    <       0.00000014 Ry

     iteration # 10     ecut=    20.00 Ry     beta= 0.70
     Davidson diagonalization with overlap
     ethr =  2.69E-10,  avg # of iterations =  3.0

     total cpu time spent up to now is      175.6 secs

     total energy              =    -417.91436146 Ry
     Harris-Foulkes estimate   =    -417.91436146 Ry
     estimated scf accuracy    <          9.7E-09 Ry

     iteration # 11     ecut=    20.00 Ry     beta= 0.70
     Davidson diagonalization with overlap
     ethr =  1.86E-11,  avg # of iterations =  3.1

     total cpu time spent up to now is      193.2 secs

     total energy              =    -417.91436146 Ry
     Harris-Foulkes estimate   =    -417.91436146 Ry
     estimated scf accuracy    <          3.2E-10 Ry

     iteration # 12     ecut=    20.00 Ry     beta= 0.70
     Davidson diagonalization with overlap
     ethr =  6.14E-13,  avg # of iterations =  3.1

     total cpu time spent up to now is      209.9 secs

     total energy              =    -417.91436146 Ry
     Harris-Foulkes estimate   =    -417.91436146 Ry
     estimated scf accuracy    <          4.4E-11 Ry

     iteration # 13     ecut=    20.00 Ry     beta= 0.70
     Davidson diagonalization with overlap
     ethr =  1.00E-13,  avg # of iterations =  3.1

     total cpu time spent up to now is      226.0 secs

     End of self-consistent calculation

     Number of k-points >= 100: set verbosity='high' to print the bands.

     highest occupied level (ev):    10.7650

!    total energy              =    -417.91436146 Ry
     Harris-Foulkes estimate   =    -417.91436146 Ry
     estimated scf accuracy    <          8.0E-13 Ry

     The total energy is the sum of the following terms:

     one-electron contribution =     -78.23861454 Ry
     hartree contribution      =      76.41965985 Ry
     xc contribution           =    -113.61407097 Ry
     ewald contribution        =    -302.48133581 Ry

     convergence has been achieved in  13 iterations

     Forces acting on atoms (cartesian axes, Ry/au):

     atom    1 type  1   force =    -0.00217262   -0.00217262    0.00000000
     atom    2 type  1   force =    -0.00195672   -0.00195672    0.00000000
     atom    3 type  2   force =    -0.06010175    0.06179753    0.00000000
     atom    4 type  2   force =     0.06179753   -0.06010175    0.00000000
     atom    5 type  2   force =     0.03137839    0.03137839    0.00000000
     atom    6 type  2   force =    -0.02894484   -0.02894484    0.00000000

     Total force =     0.136104     Total SCF correction =     0.000006


     Computing stress (Cartesian axis) and pressure

          total   stress  (Ry/bohr**3)                   (kbar)     P=********
  -0.07985702  -0.00000023   0.00000000     -11747.37     -0.03      0.00
  -0.00000023  -0.07985702   0.00000000         -0.03 -11747.37      0.00
   0.00000000   0.00000000  -0.07825647          0.00      0.00 -11511.92


     BFGS Geometry Optimization

     number of scf cycles    =   1
     number of bfgs steps    =   0

     enthalpy new            =    -417.9143614602 Ry

     new trust radius        =       0.5000000000 bohr
     new conv_thr            =            1.0E-12 Ry

     new unit-cell volume =    356.70430 a.u.^3 (    52.85812 Ang^3 )
     density =      9.46899 g/cm^3

CELL_PARAMETERS (alat=  9.11000000)
   0.888922769   0.000000000   0.000000000
   0.000000000   0.888922769   0.000000000
   0.000000000   0.000000000   0.597069874

ATOMIC_POSITIONS (crystal)
Sn      -0.000013269  -0.000013269   0.000000000
Sn       0.499988050   0.499988050   0.500000000
O        0.805632937   0.193377420   0.500000000
O        0.193377420   0.805632937   0.500000000
O        0.306191639   0.306191639   0.000000000
O        0.692823223   0.692823223   0.000000000



     Writing output data file SnO2.save
     Check: negative starting charge=   -0.016581
     NEW-OLD atomic charge density approx. for the potential

     Check: negative/imaginary core charge=   -0.002838    0.000000
     Check: negative starting charge=   -0.005604

     negative rho (up, down):  2.300E+00 0.000E+00
     extrapolated charge   30.15565, renormalised to   52.00000

     total cpu time spent up to now is      233.0 secs

     Self-consistent Calculation

     iteration #  1     ecut=    20.00 Ry     beta= 0.70
     Davidson diagonalization with overlap
     ethr =  1.00E-06,  avg # of iterations = 11.8

     negative rho (up, down):  1.977E-05 0.000E+00

     total cpu time spent up to now is      285.1 secs

     total energy              =    -397.93552701 Ry
     Harris-Foulkes estimate   =    -468.82771288 Ry
     estimated scf accuracy    <      66.98077817 Ry

     iteration #  2     ecut=    20.00 Ry     beta= 0.70
     Davidson diagonalization with overlap
     ethr =  1.00E-02,  avg # of iterations =  5.1

     total cpu time spent up to now is      312.0 secs

     total energy              =    -427.95770119 Ry
     Harris-Foulkes estimate   =    -436.67275016 Ry
     estimated scf accuracy    <      12.65691137 Ry

     iteration #  3     ecut=    20.00 Ry     beta= 0.70
     Davidson diagonalization with overlap
     ethr =  1.00E-02,  avg # of iterations =  2.4

     total cpu time spent up to now is      329.8 secs

     total energy              =    -430.26609586 Ry
     Harris-Foulkes estimate   =    -430.53620652 Ry
     estimated scf accuracy    <       0.48260824 Ry

     iteration #  4     ecut=    20.00 Ry     beta= 0.70
     Davidson diagonalization with overlap
     ethr =  9.28E-04,  avg # of iterations =  2.1

     total cpu time spent up to now is      344.9 secs

     total energy              =    -430.26661872 Ry
     Harris-Foulkes estimate   =    -430.34016655 Ry
     estimated scf accuracy    <       0.12122427 Ry

     iteration #  5     ecut=    20.00 Ry     beta= 0.70
     Davidson diagonalization with overlap
     ethr =  2.33E-04,  avg # of iterations =  2.8

     total cpu time spent up to now is      361.0 secs

     total energy              =    -430.27829951 Ry
     Harris-Foulkes estimate   =    -430.29060790 Ry
     estimated scf accuracy    <       0.01932594 Ry

     iteration #  6     ecut=    20.00 Ry     beta= 0.70
     Davidson diagonalization with overlap
     ethr =  3.72E-05,  avg # of iterations =  3.0

     total cpu time spent up to now is      378.9 secs

     total energy              =    -430.28206065 Ry
     Harris-Foulkes estimate   =    -430.28290257 Ry
     estimated scf accuracy    <       0.00161818 Ry

     iteration #  7     ecut=    20.00 Ry     beta= 0.70
     Davidson diagonalization with overlap
     ethr =  3.11E-06,  avg # of iterations =  2.8

     total cpu time spent up to now is      394.9 secs

     total energy              =    -430.28239268 Ry
     Harris-Foulkes estimate   =    -430.28239940 Ry
     estimated scf accuracy    <       0.00001209 Ry

     iteration #  8     ecut=    20.00 Ry     beta= 0.70
     Davidson diagonalization with overlap
     ethr =  2.32E-08,  avg # of iterations =  2.9

     total cpu time spent up to now is      413.2 secs

     total energy              =    -430.28239580 Ry
     Harris-Foulkes estimate   =    -430.28239675 Ry
     estimated scf accuracy    <       0.00000159 Ry

     iteration #  9     ecut=    20.00 Ry     beta= 0.70
     Davidson diagonalization with overlap
     ethr =  3.06E-09,  avg # of iterations =  2.6

     total cpu time spent up to now is      430.1 secs

     total energy              =    -430.28239603 Ry
     Harris-Foulkes estimate   =    -430.28239618 Ry
     estimated scf accuracy    <       0.00000028 Ry

     iteration # 10     ecut=    20.00 Ry     beta= 0.70
     Davidson diagonalization with overlap
     ethr =  5.44E-10,  avg # of iterations =  2.3

     total cpu time spent up to now is      446.3 secs

     total energy              =    -430.28239608 Ry
     Harris-Foulkes estimate   =    -430.28239609 Ry
     estimated scf accuracy    <          6.2E-09 Ry

     iteration # 11     ecut=    20.00 Ry     beta= 0.70
     Davidson diagonalization with overlap
     ethr =  1.19E-11,  avg # of iterations =  2.6

     total cpu time spent up to now is      464.7 secs

     total energy              =    -430.28239608 Ry
     Harris-Foulkes estimate   =    -430.28239608 Ry
     estimated scf accuracy    <          4.2E-10 Ry

     iteration # 12     ecut=    20.00 Ry     beta= 0.70
     Davidson diagonalization with overlap
     ethr =  8.08E-13,  avg # of iterations =  2.0

     total cpu time spent up to now is      480.9 secs

     total energy              =    -430.28239608 Ry
     Harris-Foulkes estimate   =    -430.28239608 Ry
     estimated scf accuracy    <          1.4E-11 Ry

     iteration # 13     ecut=    20.00 Ry     beta= 0.70
     Davidson diagonalization with overlap
     ethr =  1.00E-13,  avg # of iterations =  2.0

     total cpu time spent up to now is      494.7 secs

     total energy              =    -430.28239608 Ry
     Harris-Foulkes estimate   =    -430.28239608 Ry
     estimated scf accuracy    <          1.2E-12 Ry

     iteration # 14     ecut=    20.00 Ry     beta= 0.70
     Davidson diagonalization with overlap
     ethr =  1.00E-13,  avg # of iterations =  1.0

     total cpu time spent up to now is      506.3 secs

     End of self-consistent calculation

     Number of k-points >= 100: set verbosity='high' to print the bands.

     highest occupied level (ev):    16.8571

!    total energy              =    -430.28239608 Ry
     Harris-Foulkes estimate   =    -430.28239608 Ry
     estimated scf accuracy    <          9.6E-14 Ry

     The total energy is the sum of the following terms:

     one-electron contribution =     -42.98841673 Ry
     hartree contribution      =      71.82237669 Ry
     xc contribution           =    -119.02090527 Ry
     ewald contribution        =    -340.09545077 Ry

     convergence has been achieved in  14 iterations

     Forces acting on atoms (cartesian axes, Ry/au):

     atom    1 type  1   force =    -0.00621206   -0.00621206    0.00000000
     atom    2 type  1   force =    -0.00488658   -0.00488658    0.00000000
     atom    3 type  2   force =    -0.08893113    0.09021521    0.00000000
     atom    4 type  2   force =     0.09021521   -0.08893113    0.00000000
     atom    5 type  2   force =    -0.02820024   -0.02820024    0.00000000
     atom    6 type  2   force =     0.03801481    0.03801481    0.00000000

     Total force =     0.191574     Total SCF correction =     0.000001


     Computing stress (Cartesian axis) and pressure

          total   stress  (Ry/bohr**3)                   (kbar)     P=********
  -0.08253747  -0.00003532   0.00000000     -12141.68     -5.20      0.00
  -0.00003532  -0.08253747   0.00000000         -5.20 -12141.68      0.00
   0.00000000   0.00000000  -0.07841634          0.00      0.00 -11535.44


     number of scf cycles    =   2
     number of bfgs steps    =   1

     enthalpy old            =    -417.9143614602 Ry
     enthalpy new            =    -430.2823960841 Ry

     CASE: enthalpy_new < enthalpy_old

     new trust radius        =       0.7080051903 bohr
     new conv_thr            =            1.0E-12 Ry

     new unit-cell volume =    213.52009 a.u.^3 (    31.64041 Ang^3 )
     density =     15.81879 g/cm^3

CELL_PARAMETERS (alat=  9.11000000)
   0.722306921   0.000000000   0.000000000
   0.000000000   0.722306921   0.000000000
   0.000000000   0.000000000   0.541302546

ATOMIC_POSITIONS (crystal)
Sn      -0.000656844  -0.000656844   0.000000000
Sn       0.499513313   0.499513313   0.500000000
O        0.800109826   0.198874916   0.500000000
O        0.198874916   0.800109826   0.500000000
O        0.298021926   0.298021926   0.000000000
O        0.702136863   0.702136863   0.000000000



     Writing output data file SnO2.save
     Check: negative starting charge=   -0.005604
     NEW-OLD atomic charge density approx. for the potential

     Check: negative/imaginary core charge=   -0.001216    0.000000
     Check: negative starting charge=   -0.000207

     negative rho (up, down):  4.641E+00 0.000E+00
     extrapolated charge   17.13145, renormalised to   52.00000

     total cpu time spent up to now is      513.2 secs

     Self-consistent Calculation

     iteration #  1     ecut=    20.00 Ry     beta= 0.70
     Davidson diagonalization with overlap
     ethr =  1.00E-06,  avg # of iterations = 10.9

     negative rho (up, down):  2.293E-03 0.000E+00

     total cpu time spent up to now is      566.4 secs

     total energy              =    -396.06616145 Ry
     Harris-Foulkes estimate   =    -505.59508601 Ry
     estimated scf accuracy    <     204.71360990 Ry

     iteration #  2     ecut=    20.00 Ry     beta= 0.70
     Davidson diagonalization with overlap
     ethr =  1.00E-02,  avg # of iterations =  5.0

     total cpu time spent up to now is      593.6 secs

     total energy              =    -436.20944907 Ry
     Harris-Foulkes estimate   =    -441.07379677 Ry
     estimated scf accuracy    <       7.24516042 Ry

     iteration #  3     ecut=    20.00 Ry     beta= 0.70
     Davidson diagonalization with overlap
     ethr =  1.00E-02,  avg # of iterations =  2.2

     total cpu time spent up to now is      611.1 secs

     total energy              =    -437.71912222 Ry
     Harris-Foulkes estimate   =    -437.86117780 Ry
     estimated scf accuracy    <       0.33450472 Ry

     iteration #  4     ecut=    20.00 Ry     beta= 0.70
     Davidson diagonalization with overlap
     ethr =  6.43E-04,  avg # of iterations =  2.5

     total cpu time spent up to now is      627.0 secs

     total energy              =    -437.76173763 Ry
     Harris-Foulkes estimate   =    -437.78268732 Ry
     estimated scf accuracy    <       0.04087694 Ry

     iteration #  5     ecut=    20.00 Ry     beta= 0.70
     Davidson diagonalization with overlap
     ethr =  7.86E-05,  avg # of iterations =  3.0

     total cpu time spent up to now is      643.9 secs

     total energy              =    -437.77011786 Ry
     Harris-Foulkes estimate   =    -437.77371241 Ry
     estimated scf accuracy    <       0.00661682 Ry

     iteration #  6     ecut=    20.00 Ry     beta= 0.70
     Davidson diagonalization with overlap
     ethr =  1.27E-05,  avg # of iterations =  3.0

     total cpu time spent up to now is      660.4 secs

     total energy              =    -437.77165119 Ry
     Harris-Foulkes estimate   =    -437.77173659 Ry
     estimated scf accuracy    <       0.00018463 Ry

     iteration #  7     ecut=    20.00 Ry     beta= 0.70
     Davidson diagonalization with overlap
     ethr =  3.55E-07,  avg # of iterations =  2.8

     total cpu time spent up to now is      677.3 secs

     total energy              =    -437.77168884 Ry
     Harris-Foulkes estimate   =    -437.77169061 Ry
     estimated scf accuracy    <       0.00000487 Ry

     iteration #  8     ecut=    20.00 Ry     beta= 0.70
     Davidson diagonalization with overlap
     ethr =  9.37E-09,  avg # of iterations =  2.5

     total cpu time spent up to now is      694.9 secs

     total energy              =    -437.77168993 Ry
     Harris-Foulkes estimate   =    -437.77169016 Ry
     estimated scf accuracy    <       0.00000046 Ry

     iteration #  9     ecut=    20.00 Ry     beta= 0.70
     Davidson diagonalization with overlap
     ethr =  8.79E-10,  avg # of iterations =  2.0

     total cpu time spent up to now is      710.6 secs

     total energy              =    -437.77169003 Ry
     Harris-Foulkes estimate   =    -437.77169004 Ry
     estimated scf accuracy    <       0.00000002 Ry

     iteration # 10     ecut=    20.00 Ry     beta= 0.70
     Davidson diagonalization with overlap
     ethr =  4.47E-11,  avg # of iterations =  2.3

     total cpu time spent up to now is      728.0 secs

     total energy              =    -437.77169003 Ry
     Harris-Foulkes estimate   =    -437.77169003 Ry
     estimated scf accuracy    <          3.0E-09 Ry

     iteration # 11     ecut=    20.00 Ry     beta= 0.70
     Davidson diagonalization with overlap
     ethr =  5.69E-12,  avg # of iterations =  2.2

     total cpu time spent up to now is      745.0 secs

     total energy              =    -437.77169003 Ry
     Harris-Foulkes estimate   =    -437.77169003 Ry
     estimated scf accuracy    <          2.1E-10 Ry

     iteration # 12     ecut=    20.00 Ry     beta= 0.70
     Davidson diagonalization with overlap
     ethr =  4.04E-13,  avg # of iterations =  2.2

     total cpu time spent up to now is      761.0 secs

     total energy              =    -437.77169003 Ry
     Harris-Foulkes estimate   =    -437.77169003 Ry
     estimated scf accuracy    <          2.8E-12 Ry

     iteration # 13     ecut=    20.00 Ry     beta= 0.70
     Davidson diagonalization with overlap
     ethr =  1.00E-13,  avg # of iterations =  1.0

     total cpu time spent up to now is      772.7 secs

     End of self-consistent calculation

     Number of k-points >= 100: set verbosity='high' to print the bands.

     highest occupied level (ev):    32.8505

!    total energy              =    -437.77169003 Ry
     Harris-Foulkes estimate   =    -437.77169003 Ry
     estimated scf accuracy    <          1.1E-13 Ry

     The total energy is the sum of the following terms:

     one-electron contribution =      37.91725849 Ry
     hartree contribution      =      58.40919535 Ry
     xc contribution           =    -126.69114125 Ry
     ewald contribution        =    -407.40700263 Ry

     convergence has been achieved in  13 iterations

     Forces acting on atoms (cartesian axes, Ry/au):

     atom    1 type  1   force =     0.04498487    0.04498487    0.00000000
     atom    2 type  1   force =     0.00964859    0.00964859    0.00000000
     atom    3 type  2   force =     0.43802168   -0.43437985    0.00000000
     atom    4 type  2   force =    -0.43437985    0.43802168    0.00000000
     atom    5 type  2   force =     0.53535692    0.53535692    0.00000000
     atom    6 type  2   force =    -0.59363221   -0.59363221    0.00000000

     Total force =     1.429456     Total SCF correction =     0.000002


     Computing stress (Cartesian axis) and pressure

          total   stress  (Ry/bohr**3)                   (kbar)     P=  410.88
   0.01667973   0.00095764   0.00000000       2453.67    140.87      0.00
   0.00095764   0.01667973   0.00000000        140.87   2453.67      0.00
   0.00000000   0.00000000  -0.02498020          0.00      0.00  -3674.71


     number of scf cycles    =   3
     number of bfgs steps    =   2

     enthalpy old            =    -430.2823960841 Ry
     enthalpy new            =    -437.7716900318 Ry

     CASE: enthalpy_new < enthalpy_old

     new trust radius        =       0.8000000000 bohr
     new conv_thr            =            1.0E-12 Ry

     new unit-cell volume =    188.58437 a.u.^3 (    27.94532 Ang^3 )
     density =     17.91044 g/cm^3

CELL_PARAMETERS (alat=  9.11000000)
   0.796543747   0.000000000   0.000000000
   0.000000000   0.796543747   0.000000000
   0.000000000   0.000000000   0.393125583

ATOMIC_POSITIONS (crystal)
Sn       0.001161728   0.001161728   0.000000000
Sn       0.499811124   0.499811124   0.500000000
O        0.817981950   0.181158901   0.500000000
O        0.181158901   0.817981950   0.500000000
O        0.319579675   0.319579675   0.000000000
O        0.678306623   0.678306623   0.000000000



     Writing output data file SnO2.save
     Check: negative starting charge=   -0.000207
     NEW-OLD atomic charge density approx. for the potential

     Check: negative/imaginary core charge=   -0.001159    0.000000

     negative rho (up, down):  1.004E-03 0.000E+00
     extrapolated charge   45.12467, renormalised to   52.00000

     total cpu time spent up to now is      784.9 secs

     Self-consistent Calculation

     iteration #  1     ecut=    20.00 Ry     beta= 0.70
     Davidson diagonalization with overlap
     ethr =  1.00E-06,  avg # of iterations =  7.7

     negative rho (up, down):  1.197E-04 0.000E+00

     total cpu time spent up to now is      830.0 secs

     total energy              =    -430.32672812 Ry
     Harris-Foulkes estimate   =    -439.13720271 Ry
     estimated scf accuracy    <       0.93988966 Ry

     iteration #  2     ecut=    20.00 Ry     beta= 0.70
     Davidson diagonalization with overlap
     ethr =  1.81E-03,  avg # of iterations =  3.3

     total cpu time spent up to now is      851.2 secs

     total energy              =    -431.69259824 Ry
     Harris-Foulkes estimate   =    -432.22403447 Ry
     estimated scf accuracy    <       1.24088373 Ry

     iteration #  3     ecut=    20.00 Ry     beta= 0.70
     Davidson diagonalization with overlap
     ethr =  1.81E-03,  avg # of iterations =  2.3

     total cpu time spent up to now is      865.6 secs

     total energy              =    -431.67105775 Ry
     Harris-Foulkes estimate   =    -431.78622157 Ry
     estimated scf accuracy    <       0.19661941 Ry

     iteration #  4     ecut=    20.00 Ry     beta= 0.70
     Davidson diagonalization with overlap
     ethr =  3.78E-04,  avg # of iterations =  2.4

     total cpu time spent up to now is      882.7 secs

     total energy              =    -431.70689773 Ry
     Harris-Foulkes estimate   =    -431.70881961 Ry
     estimated scf accuracy    <       0.00321790 Ry

     iteration #  5     ecut=    20.00 Ry     beta= 0.70
     Davidson diagonalization with overlap
     ethr =  6.19E-06,  avg # of iterations =  2.9

     total cpu time spent up to now is      900.7 secs

     total energy              =    -431.70803263 Ry
     Harris-Foulkes estimate   =    -431.70812099 Ry
     estimated scf accuracy    <       0.00039176 Ry

     iteration #  6     ecut=    20.00 Ry     beta= 0.70
     Davidson diagonalization with overlap
     ethr =  7.53E-07,  avg # of iterations =  2.1

     total cpu time spent up to now is      915.2 secs

     total energy              =    -431.70795142 Ry
     Harris-Foulkes estimate   =    -431.70807747 Ry
     estimated scf accuracy    <       0.00019066 Ry

     iteration #  7     ecut=    20.00 Ry     beta= 0.70
     Davidson diagonalization with overlap
     ethr =  3.67E-07,  avg # of iterations =  2.2

     total cpu time spent up to now is      932.5 secs

     total energy              =    -431.70799188 Ry
     Harris-Foulkes estimate   =    -431.70799215 Ry
     estimated scf accuracy    <       0.00000052 Ry

     iteration #  8     ecut=    20.00 Ry     beta= 0.70
     Davidson diagonalization with overlap
     ethr =  9.92E-10,  avg # of iterations =  3.1

     total cpu time spent up to now is      951.9 secs

     total energy              =    -431.70799218 Ry
     Harris-Foulkes estimate   =    -431.70799220 Ry
     estimated scf accuracy    <       0.00000004 Ry

     iteration #  9     ecut=    20.00 Ry     beta= 0.70
     Davidson diagonalization with overlap
     ethr =  7.48E-11,  avg # of iterations =  2.3

     total cpu time spent up to now is      969.2 secs

     total energy              =    -431.70799219 Ry
     Harris-Foulkes estimate   =    -431.70799219 Ry
     estimated scf accuracy    <          4.5E-09 Ry

     iteration # 10     ecut=    20.00 Ry     beta= 0.70
     Davidson diagonalization with overlap
     ethr =  8.71E-12,  avg # of iterations =  2.3

     total cpu time spent up to now is      986.2 secs

     total energy              =    -431.70799219 Ry
     Harris-Foulkes estimate   =    -431.70799219 Ry
     estimated scf accuracy    <          4.1E-10 Ry

     iteration # 11     ecut=    20.00 Ry     beta= 0.70
     Davidson diagonalization with overlap
     ethr =  7.96E-13,  avg # of iterations =  2.4

     total cpu time spent up to now is     1002.7 secs

     total energy              =    -431.70799219 Ry
     Harris-Foulkes estimate   =    -431.70799219 Ry
     estimated scf accuracy    <          7.2E-12 Ry

     iteration # 12     ecut=    20.00 Ry     beta= 0.70
     Davidson diagonalization with overlap
     ethr =  1.00E-13,  avg # of iterations =  1.2

     total cpu time spent up to now is     1014.5 secs

     End of self-consistent calculation

     Number of k-points >= 100: set verbosity='high' to print the bands.

     highest occupied level (ev):    40.8414

!    total energy              =    -431.70799219 Ry
     Harris-Foulkes estimate   =    -431.70799219 Ry
     estimated scf accuracy    <          9.4E-13 Ry

     The total energy is the sum of the following terms:

     one-electron contribution =      13.28216432 Ry
     hartree contribution      =      77.19853116 Ry
     xc contribution           =    -129.30343565 Ry
     ewald contribution        =    -392.88525203 Ry

     convergence has been achieved in  12 iterations

     Forces acting on atoms (cartesian axes, Ry/au):

     atom    1 type  1   force =     0.01124363    0.01124363    0.00000000
     atom    2 type  1   force =    -0.07036703   -0.07036703    0.00000000
     atom    3 type  2   force =    -2.61769671    2.56380531    0.00000000
     atom    4 type  2   force =     2.56380531   -2.61769671   -0.00000000
     atom    5 type  2   force =    -2.66285792   -2.66285792    0.00000000
     atom    6 type  2   force =     2.77587272    2.77587272    0.00000000

     Total force =     7.513560     Total SCF correction =     0.000004


     Computing stress (Cartesian axis) and pressure

          total   stress  (Ry/bohr**3)                   (kbar)     P=10638.71
   0.00855303   0.00028273   0.00000000       1258.19     41.59      0.00
   0.00028273   0.00855303   0.00000000         41.59   1258.19      0.00
   0.00000000   0.00000000   0.19985539          0.00      0.00  29399.74


     number of scf cycles    =   4
     number of bfgs steps    =   3

     enthalpy old            =    -437.7716900318 Ry
     enthalpy new            =    -431.7079921921 Ry

     CASE: enthalpy_new > enthalpy_old

     new trust radius        =       0.1609197577 bohr
     new conv_thr            =            1.0E-12 Ry

     new unit-cell volume =    211.01880 a.u.^3 (    31.26976 Ang^3 )
     density =     16.00629 g/cm^3

CELL_PARAMETERS (alat=  9.11000000)
   0.733846675   0.000000000   0.000000000
   0.000000000   0.733846675   0.000000000
   0.000000000   0.000000000   0.518269157

ATOMIC_POSITIONS (crystal)
Sn      -0.000374156  -0.000374156   0.000000000
Sn       0.499559606   0.499559606   0.500000000
O        0.802887960   0.196121048   0.500000000
O        0.196121048   0.802887960   0.500000000
O        0.301372973   0.301372973   0.000000000
O        0.698432568   0.698432568   0.000000000



     Writing output data file SnO2.save
     NEW-OLD atomic charge density approx. for the potential

     Check: negative/imaginary core charge=   -0.001141    0.000000
     Check: negative starting charge=   -0.000119

     negative rho (up, down):  7.186E-05 0.000E+00
     extrapolated charge   57.52804, renormalised to   52.00000

     total cpu time spent up to now is     1021.4 secs

     Self-consistent Calculation

     iteration #  1     ecut=    20.00 Ry     beta= 0.70
     Davidson diagonalization with overlap
     ethr =  1.00E-06,  avg # of iterations =  8.5

     negative rho (up, down):  2.726E-06 0.000E+00

     total cpu time spent up to now is     1065.1 secs

     total energy              =    -437.10780058 Ry
     Harris-Foulkes estimate   =    -435.56004636 Ry
     estimated scf accuracy    <       0.84894232 Ry

     iteration #  2     ecut=    20.00 Ry     beta= 0.70
     Davidson diagonalization with overlap
     ethr =  1.63E-03,  avg # of iterations =  3.0

     total cpu time spent up to now is     1085.9 secs

     total energy              =    -438.00949309 Ry
     Harris-Foulkes estimate   =    -438.27460297 Ry
     estimated scf accuracy    <       0.56941231 Ry

     iteration #  3     ecut=    20.00 Ry     beta= 0.70
     Davidson diagonalization with overlap
     ethr =  1.10E-03,  avg # of iterations =  2.0

     total cpu time spent up to now is     1099.6 secs

     total energy              =    -437.99904234 Ry
     Harris-Foulkes estimate   =    -438.04955039 Ry
     estimated scf accuracy    <       0.08151774 Ry

     iteration #  4     ecut=    20.00 Ry     beta= 0.70
     Davidson diagonalization with overlap
     ethr =  1.57E-04,  avg # of iterations =  2.0

     total cpu time spent up to now is     1116.8 secs

     total energy              =    -438.01608531 Ry
     Harris-Foulkes estimate   =    -438.01639071 Ry
     estimated scf accuracy    <       0.00056870 Ry

     iteration #  5     ecut=    20.00 Ry     beta= 0.70
     Davidson diagonalization with overlap
     ethr =  1.09E-06,  avg # of iterations =  2.0

     total cpu time spent up to now is     1134.0 secs

     total energy              =    -438.01620393 Ry
     Harris-Foulkes estimate   =    -438.01621834 Ry
     estimated scf accuracy    <       0.00004860 Ry

     iteration #  6     ecut=    20.00 Ry     beta= 0.70
     Davidson diagonalization with overlap
     ethr =  9.35E-08,  avg # of iterations =  2.2

     total cpu time spent up to now is     1151.3 secs

     total energy              =    -438.01621077 Ry
     Harris-Foulkes estimate   =    -438.01621906 Ry
     estimated scf accuracy    <       0.00001554 Ry

     iteration #  7     ecut=    20.00 Ry     beta= 0.70
     Davidson diagonalization with overlap
     ethr =  2.99E-08,  avg # of iterations =  2.0

     total cpu time spent up to now is     1167.4 secs

     total energy              =    -438.01621400 Ry
     Harris-Foulkes estimate   =    -438.01621432 Ry
     estimated scf accuracy    <       0.00000057 Ry

     iteration #  8     ecut=    20.00 Ry     beta= 0.70
     Davidson diagonalization with overlap
     ethr =  1.09E-09,  avg # of iterations =  2.0

     total cpu time spent up to now is     1183.3 secs

     total energy              =    -438.01621402 Ry
     Harris-Foulkes estimate   =    -438.01621408 Ry
     estimated scf accuracy    <       0.00000009 Ry

     iteration #  9     ecut=    20.00 Ry     beta= 0.70
     Davidson diagonalization with overlap
     ethr =  1.81E-10,  avg # of iterations =  2.0

     total cpu time spent up to now is     1200.8 secs

     total energy              =    -438.01621405 Ry
     Harris-Foulkes estimate   =    -438.01621405 Ry
     estimated scf accuracy    <          3.1E-09 Ry

     iteration # 10     ecut=    20.00 Ry     beta= 0.70
     Davidson diagonalization with overlap
     ethr =  6.00E-12,  avg # of iterations =  2.0

     total cpu time spent up to now is     1215.8 secs

     total energy              =    -438.01621405 Ry
     Harris-Foulkes estimate   =    -438.01621405 Ry
     estimated scf accuracy    <          7.5E-10 Ry

     iteration # 11     ecut=    20.00 Ry     beta= 0.70
     Davidson diagonalization with overlap
     ethr =  1.44E-12,  avg # of iterations =  2.0

     total cpu time spent up to now is     1233.2 secs

     total energy              =    -438.01621405 Ry
     Harris-Foulkes estimate   =    -438.01621405 Ry
     estimated scf accuracy    <          3.6E-12 Ry

     iteration # 12     ecut=    20.00 Ry     beta= 0.70
     Davidson diagonalization with overlap
     ethr =  1.00E-13,  avg # of iterations =  1.0

     total cpu time spent up to now is     1244.9 secs

     End of self-consistent calculation

     Number of k-points >= 100: set verbosity='high' to print the bands.

     highest occupied level (ev):    32.8850

!    total energy              =    -438.01621405 Ry
     Harris-Foulkes estimate   =    -438.01621405 Ry
     estimated scf accuracy    <          4.7E-13 Ry

     The total energy is the sum of the following terms:

     one-electron contribution =      36.61044149 Ry
     hartree contribution      =      59.76436665 Ry
     xc contribution           =    -127.00527581 Ry
     ewald contribution        =    -407.38574638 Ry

     convergence has been achieved in  12 iterations

     Forces acting on atoms (cartesian axes, Ry/au):

     atom    1 type  1   force =     0.01557828    0.01557828    0.00000000
     atom    2 type  1   force =     0.00832036    0.00832036    0.00000000
     atom    3 type  2   force =     0.07147804   -0.07066683    0.00000000
     atom    4 type  2   force =    -0.07066683    0.07147804    0.00000000
     atom    5 type  2   force =     0.15537478    0.15537478    0.00000000
     atom    6 type  2   force =    -0.18008464   -0.18008464    0.00000000

     Total force =     0.366024     Total SCF correction =     0.000001


     Computing stress (Cartesian axis) and pressure

          total   stress  (Ry/bohr**3)                   (kbar)     P= 1228.83
   0.01075856   0.00058161   0.00000000       1582.64     85.56      0.00
   0.00058161   0.01075856   0.00000000         85.56   1582.64      0.00
   0.00000000   0.00000000   0.00354320          0.00      0.00    521.22


     number of scf cycles    =   5
     number of bfgs steps    =   3

     enthalpy old            =    -437.7716900318 Ry
     enthalpy new            =    -438.0162140456 Ry

     CASE: enthalpy_new < enthalpy_old

     new trust radius        =       0.0722558418 bohr
     new conv_thr            =            1.0E-12 Ry

     new unit-cell volume =    219.93787 a.u.^3 (    32.59143 Ang^3 )
     density =     15.35720 g/cm^3

CELL_PARAMETERS (alat=  9.11000000)
   0.745937969   0.000000000   0.000000000
   0.000000000   0.745937969   0.000000000
   0.000000000   0.000000000   0.522804665

ATOMIC_POSITIONS (crystal)
Sn       0.000356122   0.000356122   0.000000000
Sn       0.500178951   0.500178951   0.500000000
O        0.802220471   0.196817276   0.500000000
O        0.196817276   0.802220471   0.500000000
O        0.307637092   0.307637092   0.000000000
O        0.690790089   0.690790089   0.000000000



     Writing output data file SnO2.save
     Check: negative starting charge=   -0.000119
     NEW-OLD atomic charge density approx. for the potential

     Check: negative/imaginary core charge=   -0.001225    0.000000
     Check: negative starting charge=   -0.000286

     negative rho (up, down):  1.421E-04 0.000E+00
     extrapolated charge   54.10861, renormalised to   52.00000

     total cpu time spent up to now is     1251.7 secs

     Self-consistent Calculation

     iteration #  1     ecut=    20.00 Ry     beta= 0.70
     Davidson diagonalization with overlap
     ethr =  1.00E-06,  avg # of iterations =  5.1

     negative rho (up, down):  2.252E-05 0.000E+00

     total cpu time spent up to now is     1282.2 secs

     total energy              =    -437.90953798 Ry
     Harris-Foulkes estimate   =    -436.89106890 Ry
     estimated scf accuracy    <       0.08608405 Ry

     iteration #  2     ecut=    20.00 Ry     beta= 0.70
     Davidson diagonalization with overlap
     ethr =  1.66E-04,  avg # of iterations =  3.0

     negative rho (up, down):  2.018E-06 0.000E+00

     total cpu time spent up to now is     1303.7 secs

     total energy              =    -438.03363125 Ry
     Harris-Foulkes estimate   =    -438.06534380 Ry
     estimated scf accuracy    <       0.07229476 Ry

     iteration #  3     ecut=    20.00 Ry     beta= 0.70
     Davidson diagonalization with overlap
     ethr =  1.39E-04,  avg # of iterations =  1.9

     total cpu time spent up to now is     1316.5 secs

     total energy              =    -438.03131681 Ry
     Harris-Foulkes estimate   =    -438.03805079 Ry
     estimated scf accuracy    <       0.01245555 Ry

     iteration #  4     ecut=    20.00 Ry     beta= 0.70
     Davidson diagonalization with overlap
     ethr =  2.40E-05,  avg # of iterations =  2.0

     total cpu time spent up to now is     1332.9 secs

     total energy              =    -438.03274449 Ry
     Harris-Foulkes estimate   =    -438.03302115 Ry
     estimated scf accuracy    <       0.00048035 Ry

     iteration #  5     ecut=    20.00 Ry     beta= 0.70
     Davidson diagonalization with overlap
     ethr =  9.24E-07,  avg # of iterations =  2.0

     total cpu time spent up to now is     1349.3 secs

     total energy              =    -438.03281323 Ry
     Harris-Foulkes estimate   =    -438.03282130 Ry
     estimated scf accuracy    <       0.00001809 Ry

     iteration #  6     ecut=    20.00 Ry     beta= 0.70
     Davidson diagonalization with overlap
     ethr =  3.48E-08,  avg # of iterations =  2.8

     total cpu time spent up to now is     1367.7 secs

     total energy              =    -438.03281437 Ry
     Harris-Foulkes estimate   =    -438.03282208 Ry
     estimated scf accuracy    <       0.00001365 Ry

     iteration #  7     ecut=    20.00 Ry     beta= 0.70
     Davidson diagonalization with overlap
     ethr =  2.63E-08,  avg # of iterations =  2.0

     total cpu time spent up to now is     1383.4 secs

     total energy              =    -438.03281546 Ry
     Harris-Foulkes estimate   =    -438.03281593 Ry
     estimated scf accuracy    <       0.00000076 Ry

     iteration #  8     ecut=    20.00 Ry     beta= 0.70
     Davidson diagonalization with overlap
     ethr =  1.45E-09,  avg # of iterations =  2.0

     total cpu time spent up to now is     1400.6 secs

     total energy              =    -438.03281563 Ry
     Harris-Foulkes estimate   =    -438.03281564 Ry
     estimated scf accuracy    <          1.2E-09 Ry

     iteration #  9     ecut=    20.00 Ry     beta= 0.70
     Davidson diagonalization with overlap
     ethr =  2.22E-12,  avg # of iterations =  3.1

     total cpu time spent up to now is     1420.2 secs

     total energy              =    -438.03281564 Ry
     Harris-Foulkes estimate   =    -438.03281564 Ry
     estimated scf accuracy    <          1.3E-10 Ry

     iteration # 10     ecut=    20.00 Ry     beta= 0.70
     Davidson diagonalization with overlap
     ethr =  2.46E-13,  avg # of iterations =  2.0

     total cpu time spent up to now is     1436.3 secs

     total energy              =    -438.03281564 Ry
     Harris-Foulkes estimate   =    -438.03281564 Ry
     estimated scf accuracy    <          4.3E-11 Ry

     iteration # 11     ecut=    20.00 Ry     beta= 0.70
     Davidson diagonalization with overlap
     ethr =  1.00E-13,  avg # of iterations =  2.0

     total cpu time spent up to now is     1452.8 secs

     End of self-consistent calculation

     Number of k-points >= 100: set verbosity='high' to print the bands.

     highest occupied level (ev):    31.2785

!    total energy              =    -438.03281564 Ry
     Harris-Foulkes estimate   =    -438.03281564 Ry
     estimated scf accuracy    <          9.1E-13 Ry

     The total energy is the sum of the following terms:

     one-electron contribution =      28.37494523 Ry
     hartree contribution      =      61.28743268 Ry
     xc contribution           =    -126.41320697 Ry
     ewald contribution        =    -401.28198658 Ry

     convergence has been achieved in  11 iterations

     Forces acting on atoms (cartesian axes, Ry/au):

     atom    1 type  1   force =    -0.04159072   -0.04159072    0.00000000
     atom    2 type  1   force =    -0.01773135   -0.01773135    0.00000000
     atom    3 type  2   force =     0.08160221   -0.09228225    0.00000000
     atom    4 type  2   force =    -0.09228225    0.08160221    0.00000000
     atom    5 type  2   force =    -0.11748976   -0.11748976    0.00000000
     atom    6 type  2   force =     0.18749186    0.18749186    0.00000000

     Total force =     0.363803     Total SCF correction =     0.000006


     Computing stress (Cartesian axis) and pressure

          total   stress  (Ry/bohr**3)                   (kbar)     P= -714.85
  -0.00467553  -0.00144340   0.00000000       -687.79   -212.33      0.00
  -0.00144340  -0.00467553   0.00000000       -212.33   -687.79      0.00
   0.00000000   0.00000000  -0.00522735          0.00      0.00   -768.97


     number of scf cycles    =   6
     number of bfgs steps    =   4

     enthalpy old            =    -438.0162140456 Ry
     enthalpy new            =    -438.0328156355 Ry

     CASE: enthalpy_new < enthalpy_old

     new trust radius        =       0.0757874021 bohr
     new conv_thr            =            1.0E-12 Ry

     new unit-cell volume =    218.29796 a.u.^3 (    32.34842 Ang^3 )
     density =     15.47256 g/cm^3

CELL_PARAMETERS (alat=  9.11000000)
   0.745775377   0.000000000   0.000000000
   0.000000000   0.745775377   0.000000000
   0.000000000   0.000000000   0.519132789

ATOMIC_POSITIONS (crystal)
Sn      -0.001547431  -0.001547431   0.000000000
Sn       0.499419237   0.499419237   0.500000000
O        0.806280377   0.192235902   0.500000000
O        0.192235902   0.806280377   0.500000000
O        0.302935750   0.302935750   0.000000000
O        0.698676165   0.698676165   0.000000000



     Writing output data file SnO2.save
     Check: negative starting charge=   -0.000286
     NEW-OLD atomic charge density approx. for the potential

     Check: negative/imaginary core charge=   -0.001221    0.000000
     Check: negative starting charge=   -0.000230
     extrapolated charge   51.60939, renormalised to   52.00000

     total cpu time spent up to now is     1460.1 secs

     Self-consistent Calculation

     iteration #  1     ecut=    20.00 Ry     beta= 0.70
     Davidson diagonalization with overlap
     ethr =  1.00E-06,  avg # of iterations =  5.3

     total cpu time spent up to now is     1490.8 secs

     total energy              =    -438.03262650 Ry
     Harris-Foulkes estimate   =    -438.24889875 Ry
     estimated scf accuracy    <       0.01050873 Ry

     iteration #  2     ecut=    20.00 Ry     beta= 0.70
     Davidson diagonalization with overlap
     ethr =  2.02E-05,  avg # of iterations =  3.0

     total cpu time spent up to now is     1509.7 secs

     total energy              =    -438.03859475 Ry
     Harris-Foulkes estimate   =    -438.04086407 Ry
     estimated scf accuracy    <       0.00432196 Ry

     iteration #  3     ecut=    20.00 Ry     beta= 0.70
     Davidson diagonalization with overlap
     ethr =  8.31E-06,  avg # of iterations =  2.0

     total cpu time spent up to now is     1524.8 secs

     total energy              =    -438.03915482 Ry
     Harris-Foulkes estimate   =    -438.03925899 Ry
     estimated scf accuracy    <       0.00025490 Ry

     iteration #  4     ecut=    20.00 Ry     beta= 0.70
     Davidson diagonalization with overlap
     ethr =  4.90E-07,  avg # of iterations =  2.0

     total cpu time spent up to now is     1541.8 secs

     total energy              =    -438.03919743 Ry
     Harris-Foulkes estimate   =    -438.03921192 Ry
     estimated scf accuracy    <       0.00003121 Ry

     iteration #  5     ecut=    20.00 Ry     beta= 0.70
     Davidson diagonalization with overlap
     ethr =  6.00E-08,  avg # of iterations =  2.9

     total cpu time spent up to now is     1558.3 secs

     total energy              =    -438.03920421 Ry
     Harris-Foulkes estimate   =    -438.03920524 Ry
     estimated scf accuracy    <       0.00000205 Ry

     iteration #  6     ecut=    20.00 Ry     beta= 0.70
     Davidson diagonalization with overlap
     ethr =  3.95E-09,  avg # of iterations =  2.1

     total cpu time spent up to now is     1574.2 secs

     total energy              =    -438.03920443 Ry
     Harris-Foulkes estimate   =    -438.03920455 Ry
     estimated scf accuracy    <       0.00000025 Ry

     iteration #  7     ecut=    20.00 Ry     beta= 0.70
     Davidson diagonalization with overlap
     ethr =  4.87E-10,  avg # of iterations =  2.0

     total cpu time spent up to now is     1590.3 secs

     total energy              =    -438.03920446 Ry
     Harris-Foulkes estimate   =    -438.03920447 Ry
     estimated scf accuracy    <       0.00000001 Ry

     iteration #  8     ecut=    20.00 Ry     beta= 0.70
     Davidson diagonalization with overlap
     ethr =  2.36E-11,  avg # of iterations =  2.0

     total cpu time spent up to now is     1607.4 secs

     total energy              =    -438.03920446 Ry
     Harris-Foulkes estimate   =    -438.03920446 Ry
     estimated scf accuracy    <          1.4E-10 Ry

     iteration #  9     ecut=    20.00 Ry     beta= 0.70
     Davidson diagonalization with overlap
     ethr =  2.72E-13,  avg # of iterations =  2.4

     total cpu time spent up to now is     1625.2 secs

     total energy              =    -438.03920446 Ry
     Harris-Foulkes estimate   =    -438.03920446 Ry
     estimated scf accuracy    <          2.9E-11 Ry

     iteration # 10     ecut=    20.00 Ry     beta= 0.70
     Davidson diagonalization with overlap
     ethr =  1.00E-13,  avg # of iterations =  2.0

     total cpu time spent up to now is     1640.2 secs

     End of self-consistent calculation

     Number of k-points >= 100: set verbosity='high' to print the bands.

     highest occupied level (ev):    31.5263

!    total energy              =    -438.03920446 Ry
     Harris-Foulkes estimate   =    -438.03920446 Ry
     estimated scf accuracy    <          4.7E-13 Ry

     The total energy is the sum of the following terms:

     one-electron contribution =      29.40463743 Ry
     hartree contribution      =      61.21868592 Ry
     xc contribution           =    -126.53417519 Ry
     ewald contribution        =    -402.12835263 Ry

     convergence has been achieved in  10 iterations

     Forces acting on atoms (cartesian axes, Ry/au):

     atom    1 type  1   force =     0.10886076    0.10886076    0.00000000
     atom    2 type  1   force =     0.03006267    0.03006267    0.00000000
     atom    3 type  2   force =    -0.13627323    0.14755135    0.00000000
     atom    4 type  2   force =     0.14755135   -0.13627323    0.00000000
     atom    5 type  2   force =     0.01283610    0.01283610    0.00000000
     atom    6 type  2   force =    -0.16303765   -0.16303765    0.00000000

     Total force =     0.399605     Total SCF correction =     0.000002


     Computing stress (Cartesian axis) and pressure

          total   stress  (Ry/bohr**3)                   (kbar)     P= -347.12
  -0.00288156   0.00127249   0.00000000       -423.89    187.19      0.00
   0.00127249  -0.00288156   0.00000000        187.19   -423.89      0.00
   0.00000000   0.00000000  -0.00131594          0.00      0.00   -193.58


     number of scf cycles    =   7
     number of bfgs steps    =   5

     enthalpy old            =    -438.0328156355 Ry
     enthalpy new            =    -438.0392044647 Ry

     CASE: enthalpy_new < enthalpy_old

     new trust radius        =       0.0398421613 bohr
     new conv_thr            =            1.0E-12 Ry

     new unit-cell volume =    214.48846 a.u.^3 (    31.78391 Ang^3 )
     density =     15.74737 g/cm^3

CELL_PARAMETERS (alat=  9.11000000)
   0.741352392   0.000000000   0.000000000
   0.000000000   0.741352392   0.000000000
   0.000000000   0.000000000   0.516177902

ATOMIC_POSITIONS (crystal)
Sn       0.002599258   0.002599258   0.000000000
Sn       0.500370635   0.500370635   0.500000000
O        0.802662344   0.196140889   0.500000000
O        0.196140889   0.802662344   0.500000000
O        0.300980558   0.300980558   0.000000000
O        0.695246315   0.695246315   0.000000000



     Writing output data file SnO2.save
     Check: negative starting charge=   -0.000230
     NEW-OLD atomic charge density approx. for the potential

     Check: negative/imaginary core charge=   -0.001174    0.000000
     Check: negative starting charge=   -0.000166
     extrapolated charge   51.07649, renormalised to   52.00000

     total cpu time spent up to now is     1647.2 secs

     Self-consistent Calculation

     iteration #  1     ecut=    20.00 Ry     beta= 0.70
     Davidson diagonalization with overlap
     ethr =  1.00E-06,  avg # of iterations =  5.0

     total cpu time spent up to now is     1677.5 secs

     total energy              =    -438.01766755 Ry
     Harris-Foulkes estimate   =    -438.50643123 Ry
     estimated scf accuracy    <       0.01909274 Ry

     iteration #  2     ecut=    20.00 Ry     beta= 0.70
     Davidson diagonalization with overlap
     ethr =  3.67E-05,  avg # of iterations =  3.0

     total cpu time spent up to now is     1698.0 secs

     total energy              =    -438.04035836 Ry
     Harris-Foulkes estimate   =    -438.04611467 Ry
     estimated scf accuracy    <       0.01277650 Ry

     iteration #  3     ecut=    20.00 Ry     beta= 0.70
     Davidson diagonalization with overlap
     ethr =  2.46E-05,  avg # of iterations =  2.0

     total cpu time spent up to now is     1711.2 secs

     total energy              =    -438.04025598 Ry
     Harris-Foulkes estimate   =    -438.04126182 Ry
     estimated scf accuracy    <       0.00181503 Ry

     iteration #  4     ecut=    20.00 Ry     beta= 0.70
     Davidson diagonalization with overlap
     ethr =  3.49E-06,  avg # of iterations =  2.0

     total cpu time spent up to now is     1728.3 secs

     total energy              =    -438.04053310 Ry
     Harris-Foulkes estimate   =    -438.04055679 Ry
     estimated scf accuracy    <       0.00004239 Ry

     iteration #  5     ecut=    20.00 Ry     beta= 0.70
     Davidson diagonalization with overlap
     ethr =  8.15E-08,  avg # of iterations =  2.6

     total cpu time spent up to now is     1745.8 secs

     total energy              =    -438.04054359 Ry
     Harris-Foulkes estimate   =    -438.04054502 Ry
     estimated scf accuracy    <       0.00000377 Ry

     iteration #  6     ecut=    20.00 Ry     beta= 0.70
     Davidson diagonalization with overlap
     ethr =  7.25E-09,  avg # of iterations =  2.7

     total cpu time spent up to now is     1761.6 secs

     total energy              =    -438.04054365 Ry
     Harris-Foulkes estimate   =    -438.04054436 Ry
     estimated scf accuracy    <       0.00000126 Ry

     iteration #  7     ecut=    20.00 Ry     beta= 0.70
     Davidson diagonalization with overlap
     ethr =  2.43E-09,  avg # of iterations =  2.0

     total cpu time spent up to now is     1777.0 secs

     total energy              =    -438.04054375 Ry
     Harris-Foulkes estimate   =    -438.04054379 Ry
     estimated scf accuracy    <       0.00000007 Ry

     iteration #  8     ecut=    20.00 Ry     beta= 0.70
     Davidson diagonalization with overlap
     ethr =  1.30E-10,  avg # of iterations =  2.0

     total cpu time spent up to now is     1794.3 secs

     total energy              =    -438.04054377 Ry
     Harris-Foulkes estimate   =    -438.04054377 Ry
     estimated scf accuracy    <          5.3E-10 Ry

     iteration #  9     ecut=    20.00 Ry     beta= 0.70
     Davidson diagonalization with overlap
     ethr =  1.03E-12,  avg # of iterations =  2.5

     total cpu time spent up to now is     1812.0 secs

     total energy              =    -438.04054377 Ry
     Harris-Foulkes estimate   =    -438.04054377 Ry
     estimated scf accuracy    <          9.1E-11 Ry

     iteration # 10     ecut=    20.00 Ry     beta= 0.70
     Davidson diagonalization with overlap
     ethr =  1.75E-13,  avg # of iterations =  2.0

     total cpu time spent up to now is     1828.7 secs

     total energy              =    -438.04054377 Ry
     Harris-Foulkes estimate   =    -438.04054377 Ry
     estimated scf accuracy    <          3.0E-12 Ry

     iteration # 11     ecut=    20.00 Ry     beta= 0.70
     Davidson diagonalization with overlap
     ethr =  1.00E-13,  avg # of iterations =  1.0

     total cpu time spent up to now is     1840.3 secs

     End of self-consistent calculation

     Number of k-points >= 100: set verbosity='high' to print the bands.

     highest occupied level (ev):    32.1224

!    total energy              =    -438.04054377 Ry
     Harris-Foulkes estimate   =    -438.04054377 Ry
     estimated scf accuracy    <          2.2E-13 Ry

     The total energy is the sum of the following terms:

     one-electron contribution =      32.76731097 Ry
     hartree contribution      =      60.63062127 Ry
     xc contribution           =    -126.79230222 Ry
     ewald contribution        =    -404.64617379 Ry

     convergence has been achieved in  11 iterations

     Forces acting on atoms (cartesian axes, Ry/au):

     atom    1 type  1   force =    -0.19851925   -0.19851925    0.00000000
     atom    2 type  1   force =    -0.04117508   -0.04117508    0.00000000
     atom    3 type  2   force =     0.00235669   -0.03788201    0.00000000
     atom    4 type  2   force =    -0.03788201    0.00235669    0.00000000
     atom    5 type  2   force =     0.18803601    0.18803601    0.00000000
     atom    6 type  2   force =     0.08718363    0.08718363    0.00000000

     Total force =     0.413532     Total SCF correction =     0.000002


     Computing stress (Cartesian axis) and pressure

          total   stress  (Ry/bohr**3)                   (kbar)     P=  487.38
   0.00336646   0.00017669   0.00000000        495.22     25.99      0.00
   0.00017669   0.00336646  -0.00000000         25.99    495.22     -0.00
   0.00000000  -0.00000000   0.00320641          0.00     -0.00    471.68


     number of scf cycles    =   8
     number of bfgs steps    =   6

     enthalpy old            =    -438.0392044647 Ry
     enthalpy new            =    -438.0405437676 Ry

     CASE: enthalpy_new < enthalpy_old

     new trust radius        =       0.0594088029 bohr
     new conv_thr            =            1.0E-12 Ry

     new unit-cell volume =    214.86864 a.u.^3 (    31.84025 Ang^3 )
     density =     15.71951 g/cm^3

CELL_PARAMETERS (alat=  9.11000000)
   0.741034398   0.000000000   0.000000000
   0.000000000   0.741034398   0.000000000
   0.000000000   0.000000000   0.517536717

ATOMIC_POSITIONS (crystal)
Sn      -0.001896304  -0.001896304   0.000000000
Sn       0.499552884   0.499552884   0.500000000
O        0.800291605   0.197553644   0.500000000
O        0.197553644   0.800291605   0.500000000
O        0.307200592   0.307200592   0.000000000
O        0.695297579   0.695297579   0.000000000



     Writing output data file SnO2.save
     Check: negative starting charge=   -0.000166
     NEW-OLD atomic charge density approx. for the potential

     Check: negative/imaginary core charge=   -0.001174    0.000000
     Check: negative starting charge=   -0.000187
     extrapolated charge   52.09200, renormalised to   52.00000

     total cpu time spent up to now is     1847.5 secs

     Self-consistent Calculation

     iteration #  1     ecut=    20.00 Ry     beta= 0.70
     Davidson diagonalization with overlap
     ethr =  1.00E-06,  avg # of iterations =  5.1

     total cpu time spent up to now is     1877.4 secs

     total energy              =    -438.03868475 Ry
     Harris-Foulkes estimate   =    -437.99383273 Ry
     estimated scf accuracy    <       0.00401810 Ry

     iteration #  2     ecut=    20.00 Ry     beta= 0.70
     Davidson diagonalization with overlap
     ethr =  7.73E-06,  avg # of iterations =  2.0

     total cpu time spent up to now is     1894.0 secs

     total energy              =    -438.03957028 Ry
     Harris-Foulkes estimate   =    -438.03988739 Ry
     estimated scf accuracy    <       0.00061390 Ry

     iteration #  3     ecut=    20.00 Ry     beta= 0.70
     Davidson diagonalization with overlap
     ethr =  1.18E-06,  avg # of iterations =  2.2

     total cpu time spent up to now is     1909.3 secs

     total energy              =    -438.03972434 Ry
     Harris-Foulkes estimate   =    -438.03973724 Ry
     estimated scf accuracy    <       0.00005534 Ry

     iteration #  4     ecut=    20.00 Ry     beta= 0.70
     Davidson diagonalization with overlap
     ethr =  1.06E-07,  avg # of iterations =  2.2

     total cpu time spent up to now is     1925.0 secs

     total energy              =    -438.03973592 Ry
     Harris-Foulkes estimate   =    -438.03973728 Ry
     estimated scf accuracy    <       0.00000389 Ry

     iteration #  5     ecut=    20.00 Ry     beta= 0.70
     Davidson diagonalization with overlap
     ethr =  7.48E-09,  avg # of iterations =  2.2

     total cpu time spent up to now is     1941.4 secs

     total energy              =    -438.03973677 Ry
     Harris-Foulkes estimate   =    -438.03973680 Ry
     estimated scf accuracy    <       0.00000017 Ry

     iteration #  6     ecut=    20.00 Ry     beta= 0.70
     Davidson diagonalization with overlap
     ethr =  3.35E-10,  avg # of iterations =  2.2

     total cpu time spent up to now is     1958.4 secs

     total energy              =    -438.03973680 Ry
     Harris-Foulkes estimate   =    -438.03973681 Ry
     estimated scf accuracy    <       0.00000001 Ry

     iteration #  7     ecut=    20.00 Ry     beta= 0.70
     Davidson diagonalization with overlap
     ethr =  2.50E-11,  avg # of iterations =  2.4

     total cpu time spent up to now is     1975.0 secs

     total energy              =    -438.03973681 Ry
     Harris-Foulkes estimate   =    -438.03973681 Ry
     estimated scf accuracy    <          9.1E-10 Ry

     iteration #  8     ecut=    20.00 Ry     beta= 0.70
     Davidson diagonalization with overlap
     ethr =  1.75E-12,  avg # of iterations =  2.1

     total cpu time spent up to now is     1991.3 secs

     total energy              =    -438.03973681 Ry
     Harris-Foulkes estimate   =    -438.03973681 Ry
     estimated scf accuracy    <          8.9E-11 Ry

     iteration #  9     ecut=    20.00 Ry     beta= 0.70
     Davidson diagonalization with overlap
     ethr =  1.71E-13,  avg # of iterations =  2.6

     total cpu time spent up to now is     2008.7 secs

     total energy              =    -438.03973681 Ry
     Harris-Foulkes estimate   =    -438.03973681 Ry
     estimated scf accuracy    <          1.0E-11 Ry

     iteration # 10     ecut=    20.00 Ry     beta= 0.70
     Davidson diagonalization with overlap
     ethr =  1.00E-13,  avg # of iterations =  1.0

     total cpu time spent up to now is     2020.8 secs

     End of self-consistent calculation

     Number of k-points >= 100: set verbosity='high' to print the bands.

     highest occupied level (ev):    32.1645

!    total energy              =    -438.03973681 Ry
     Harris-Foulkes estimate   =    -438.03973681 Ry
     estimated scf accuracy    <          2.3E-13 Ry

     The total energy is the sum of the following terms:

     one-electron contribution =      32.51051448 Ry
     hartree contribution      =      60.65672588 Ry
     xc contribution           =    -126.76295273 Ry
     ewald contribution        =    -404.44402444 Ry

     convergence has been achieved in  10 iterations

     Forces acting on atoms (cartesian axes, Ry/au):

     atom    1 type  1   force =     0.14025383    0.14025383    0.00000000
     atom    2 type  1   force =     0.04088723    0.04088723    0.00000000
     atom    3 type  2   force =     0.13162883   -0.12033268    0.00000000
     atom    4 type  2   force =    -0.12033268    0.13162883    0.00000000
     atom    5 type  2   force =    -0.17080663   -0.17080663    0.00000000
     atom    6 type  2   force =    -0.02163058   -0.02163058    0.00000000

     Total force =     0.406920     Total SCF correction =     0.000001


     Computing stress (Cartesian axis) and pressure

          total   stress  (Ry/bohr**3)                   (kbar)     P=  393.33
   0.00290871  -0.00123829   0.00000000        427.89   -182.16      0.00
  -0.00123829   0.00290871   0.00000000       -182.16    427.89      0.00
   0.00000000   0.00000000   0.00220406          0.00      0.00    324.23


     number of scf cycles    =   9
     number of bfgs steps    =   7

     enthalpy old            =    -438.0405437676 Ry
     enthalpy new            =    -438.0397368072 Ry

     CASE: enthalpy_new > enthalpy_old

     new trust radius        =       0.0288813177 bohr
     new conv_thr            =            1.0E-12 Ry

     new unit-cell volume =    214.67347 a.u.^3 (    31.81133 Ang^3 )
     density =     15.73380 g/cm^3

CELL_PARAMETERS (alat=  9.11000000)
   0.741197734   0.000000000   0.000000000
   0.000000000   0.741197734   0.000000000
   0.000000000   0.000000000   0.516838767

ATOMIC_POSITIONS (crystal)
Sn       0.000412823   0.000412823   0.000000000
Sn       0.499972919   0.499972919   0.500000000
O        0.801509326   0.196827988   0.500000000
O        0.196827988   0.801509326   0.500000000
O        0.304005697   0.304005697   0.000000000
O        0.695271247   0.695271247   0.000000000



     Writing output data file SnO2.save
     Check: negative starting charge=   -0.000187
     NEW-OLD atomic charge density approx. for the potential

     Check: negative/imaginary core charge=   -0.001174    0.000000
     Check: negative starting charge=   -0.000182
     extrapolated charge   51.95273, renormalised to   52.00000

     total cpu time spent up to now is     2027.8 secs

     Self-consistent Calculation

     iteration #  1     ecut=    20.00 Ry     beta= 0.70
     Davidson diagonalization with overlap
     ethr =  1.00E-06,  avg # of iterations =  4.4

     total cpu time spent up to now is     2056.4 secs

     total energy              =    -438.04710901 Ry
     Harris-Foulkes estimate   =    -438.07146951 Ry
     estimated scf accuracy    <       0.00105484 Ry

     iteration #  2     ecut=    20.00 Ry     beta= 0.70
     Davidson diagonalization with overlap
     ethr =  2.03E-06,  avg # of iterations =  2.0

     total cpu time spent up to now is     2073.0 secs

     total energy              =    -438.04734078 Ry
     Harris-Foulkes estimate   =    -438.04742392 Ry
     estimated scf accuracy    <       0.00016142 Ry

     iteration #  3     ecut=    20.00 Ry     beta= 0.70
     Davidson diagonalization with overlap
     ethr =  3.10E-07,  avg # of iterations =  2.2

     total cpu time spent up to now is     2088.4 secs

     total energy              =    -438.04738154 Ry
     Harris-Foulkes estimate   =    -438.04738484 Ry
     estimated scf accuracy    <       0.00001454 Ry

     iteration #  4     ecut=    20.00 Ry     beta= 0.70
     Davidson diagonalization with overlap
     ethr =  2.80E-08,  avg # of iterations =  2.2

     total cpu time spent up to now is     2103.7 secs

     total energy              =    -438.04738459 Ry
     Harris-Foulkes estimate   =    -438.04738492 Ry
     estimated scf accuracy    <       0.00000101 Ry

     iteration #  5     ecut=    20.00 Ry     beta= 0.70
     Davidson diagonalization with overlap
     ethr =  1.93E-09,  avg # of iterations =  2.2

     total cpu time spent up to now is     2120.1 secs

     total energy              =    -438.04738480 Ry
     Harris-Foulkes estimate   =    -438.04738481 Ry
     estimated scf accuracy    <       0.00000005 Ry

     iteration #  6     ecut=    20.00 Ry     beta= 0.70
     Davidson diagonalization with overlap
     ethr =  8.83E-11,  avg # of iterations =  2.2

     total cpu time spent up to now is     2137.0 secs

     total energy              =    -438.04738481 Ry
     Harris-Foulkes estimate   =    -438.04738481 Ry
     estimated scf accuracy    <          3.4E-09 Ry

     iteration #  7     ecut=    20.00 Ry     beta= 0.70
     Davidson diagonalization with overlap
     ethr =  6.55E-12,  avg # of iterations =  2.4

     total cpu time spent up to now is     2154.1 secs

     total energy              =    -438.04738481 Ry
     Harris-Foulkes estimate   =    -438.04738481 Ry
     estimated scf accuracy    <          2.4E-10 Ry

     iteration #  8     ecut=    20.00 Ry     beta= 0.70
     Davidson diagonalization with overlap
     ethr =  4.62E-13,  avg # of iterations =  2.0

     total cpu time spent up to now is     2170.3 secs

     total energy              =    -438.04738481 Ry
     Harris-Foulkes estimate   =    -438.04738481 Ry
     estimated scf accuracy    <          2.3E-11 Ry

     iteration #  9     ecut=    20.00 Ry     beta= 0.70
     Davidson diagonalization with overlap
     ethr =  1.00E-13,  avg # of iterations =  2.0

     total cpu time spent up to now is     2184.9 secs

     total energy              =    -438.04738481 Ry
     Harris-Foulkes estimate   =    -438.04738481 Ry
     estimated scf accuracy    <          2.5E-12 Ry

     iteration # 10     ecut=    20.00 Ry     beta= 0.70
     Davidson diagonalization with overlap
     ethr =  1.00E-13,  avg # of iterations =  1.0

     total cpu time spent up to now is     2196.6 secs

     End of self-consistent calculation

     Number of k-points >= 100: set verbosity='high' to print the bands.

     highest occupied level (ev):    32.1263

!    total energy              =    -438.04738481 Ry
     Harris-Foulkes estimate   =    -438.04738481 Ry
     estimated scf accuracy    <          7.0E-14 Ry

     The total energy is the sum of the following terms:

     one-electron contribution =      32.68728264 Ry
     hartree contribution      =      60.62196971 Ry
     xc contribution           =    -126.77694734 Ry
     ewald contribution        =    -404.57968982 Ry

     convergence has been achieved in  10 iterations

     Forces acting on atoms (cartesian axes, Ry/au):

     atom    1 type  1   force =    -0.02803298   -0.02803298    0.00000000
     atom    2 type  1   force =    -0.00148463   -0.00148463    0.00000000
     atom    3 type  2   force =     0.06531952   -0.07758410    0.00000000
     atom    4 type  2   force =    -0.07758410    0.06531952    0.00000000
     atom    5 type  2   force =     0.00649559    0.00649559    0.00000000
     atom    6 type  2   force =     0.03528660    0.03528660    0.00000000

     Total force =     0.157234     Total SCF correction =     0.000000


     Computing stress (Cartesian axis) and pressure

          total   stress  (Ry/bohr**3)                   (kbar)     P=  434.84
   0.00308633  -0.00056071   0.00000000        454.01    -82.48      0.00
  -0.00056071   0.00308633   0.00000000        -82.48    454.01      0.00
   0.00000000  -0.00000000   0.00269533          0.00     -0.00    396.50


     number of scf cycles    =  10
     number of bfgs steps    =   7

     enthalpy old            =    -438.0405437676 Ry
     enthalpy new            =    -438.0473848141 Ry

     CASE: enthalpy_new < enthalpy_old

     new trust radius        =       0.0327438600 bohr
     new conv_thr            =            1.0E-12 Ry

     new unit-cell volume =    218.43454 a.u.^3 (    32.36866 Ang^3 )
     density =     15.46289 g/cm^3

CELL_PARAMETERS (alat=  9.11000000)
   0.744544855   0.000000000   0.000000000
   0.000000000   0.744544855   0.000000000
   0.000000000   0.000000000   0.521176037

ATOMIC_POSITIONS (crystal)
Sn      -0.000077829  -0.000077829   0.000000000
Sn       0.500373375   0.500373375   0.500000000
O        0.804577015   0.193072350   0.500000000
O        0.193072350   0.804577015   0.500000000
O        0.304885644   0.304885644   0.000000000
O        0.695169444   0.695169444   0.000000000



     Writing output data file SnO2.save
     Check: negative starting charge=   -0.000182
     NEW-OLD atomic charge density approx. for the potential

     Check: negative/imaginary core charge=   -0.001221    0.000000
     Check: negative starting charge=   -0.000247

     negative rho (up, down):  4.042E-05 0.000E+00
     extrapolated charge   52.89530, renormalised to   52.00000

     total cpu time spent up to now is     2203.5 secs

     Self-consistent Calculation

     iteration #  1     ecut=    20.00 Ry     beta= 0.70
     Davidson diagonalization with overlap
     ethr =  1.00E-06,  avg # of iterations =  4.6

     total cpu time spent up to now is     2232.6 secs

     total energy              =    -438.02609491 Ry
     Harris-Foulkes estimate   =    -437.57314271 Ry
     estimated scf accuracy    <       0.01622220 Ry

     iteration #  2     ecut=    20.00 Ry     beta= 0.70
     Davidson diagonalization with overlap
     ethr =  3.12E-05,  avg # of iterations =  3.0

     total cpu time spent up to now is     2253.7 secs

     total energy              =    -438.04816198 Ry
     Harris-Foulkes estimate   =    -438.05379693 Ry
     estimated scf accuracy    <       0.01273537 Ry

     iteration #  3     ecut=    20.00 Ry     beta= 0.70
     Davidson diagonalization with overlap
     ethr =  2.45E-05,  avg # of iterations =  2.0

     total cpu time spent up to now is     2266.5 secs

     total energy              =    -438.04788627 Ry
     Harris-Foulkes estimate   =    -438.04898529 Ry
     estimated scf accuracy    <       0.00205511 Ry

     iteration #  4     ecut=    20.00 Ry     beta= 0.70
     Davidson diagonalization with overlap
     ethr =  3.95E-06,  avg # of iterations =  2.0

     total cpu time spent up to now is     2282.9 secs

     total energy              =    -438.04811824 Ry
     Harris-Foulkes estimate   =    -438.04816916 Ry
     estimated scf accuracy    <       0.00008791 Ry

     iteration #  5     ecut=    20.00 Ry     beta= 0.70
     Davidson diagonalization with overlap
     ethr =  1.69E-07,  avg # of iterations =  2.0

     total cpu time spent up to now is     2299.4 secs

     total energy              =    -438.04813298 Ry
     Harris-Foulkes estimate   =    -438.04813438 Ry
     estimated scf accuracy    <       0.00000346 Ry

     iteration #  6     ecut=    20.00 Ry     beta= 0.70
     Davidson diagonalization with overlap
     ethr =  6.65E-09,  avg # of iterations =  2.8

     total cpu time spent up to now is     2317.4 secs

     total energy              =    -438.04813312 Ry
     Harris-Foulkes estimate   =    -438.04813438 Ry
     estimated scf accuracy    <       0.00000225 Ry

     iteration #  7     ecut=    20.00 Ry     beta= 0.70
     Davidson diagonalization with overlap
     ethr =  4.33E-09,  avg # of iterations =  2.0

     total cpu time spent up to now is     2332.5 secs

     total energy              =    -438.04813328 Ry
     Harris-Foulkes estimate   =    -438.04813336 Ry
     estimated scf accuracy    <       0.00000014 Ry

     iteration #  8     ecut=    20.00 Ry     beta= 0.70
     Davidson diagonalization with overlap
     ethr =  2.66E-10,  avg # of iterations =  2.0

     total cpu time spent up to now is     2350.1 secs

     total energy              =    -438.04813331 Ry
     Harris-Foulkes estimate   =    -438.04813331 Ry
     estimated scf accuracy    <          3.9E-10 Ry

     iteration #  9     ecut=    20.00 Ry     beta= 0.70
     Davidson diagonalization with overlap
     ethr =  7.49E-13,  avg # of iterations =  2.9

     total cpu time spent up to now is     2368.9 secs

     total energy              =    -438.04813331 Ry
     Harris-Foulkes estimate   =    -438.04813331 Ry
     estimated scf accuracy    <          6.1E-11 Ry

     iteration # 10     ecut=    20.00 Ry     beta= 0.70
     Davidson diagonalization with overlap
     ethr =  1.17E-13,  avg # of iterations =  2.0

     total cpu time spent up to now is     2385.2 secs

     total energy              =    -438.04813331 Ry
     Harris-Foulkes estimate   =    -438.04813331 Ry
     estimated scf accuracy    <          2.8E-12 Ry

     iteration # 11     ecut=    20.00 Ry     beta= 0.70
     Davidson diagonalization with overlap
     ethr =  1.00E-13,  avg # of iterations =  1.0

[...]
     atom    6 type  2   force =     0.00007735    0.00007735    0.00000000

     Total force =     0.000883     Total SCF correction =     0.000001


     Computing stress (Cartesian axis) and pressure

          total   stress  (Ry/bohr**3)                   (kbar)     P=   -1.61
  -0.00000626   0.01526384   0.00000000         -0.92   2245.39      0.00
   0.01526384  -0.00000626   0.00000000       2245.39     -0.92      0.00
   0.00000000   0.00000000  -0.00002026          0.00      0.00     -2.98


     number of scf cycles    =  39
     number of bfgs steps    =  33

     enthalpy old            =    -438.6874781999 Ry
     enthalpy new            =    -438.6874781314 Ry

     CASE: enthalpy_new > enthalpy_old

     new trust radius        =       0.0000291501 bohr

     trust_radius < trust_radius_min

     resetting bfgs history

     Message from routine bfgs:
     history already reset at previous step: stopping
     new conv_thr            =            1.0E-12 Ry

     new unit-cell volume =    208.67592 a.u.^3 (    30.92258 Ang^3 )
     density =     16.18600 g/cm^3

CELL_PARAMETERS (alat=  9.11000000)
   0.734330285   0.000000000   0.000000000
   0.000000000   0.734330285   0.000000000
   0.000000000   0.000000000   0.511840121

ATOMIC_POSITIONS (crystal)
Sn       0.052512428   0.052512428   0.000000000
Sn       0.556831546   0.556831546   0.500000000
O        0.691839600   0.108480836   0.500000000
O        0.108480836   0.691839600   0.500000000
O        0.350434040   0.350434040   0.000000000
O        0.737901550   0.737901550   0.000000000



     Writing output data file SnO2.save
     NEW-OLD atomic charge density approx. for the potential

     Check: negative/imaginary core charge=   -0.001100    0.000000
     extrapolated charge   52.00531, renormalised to   52.00000

     total cpu time spent up to now is     7516.6 secs

     Self-consistent Calculation

     iteration #  1     ecut=    20.00 Ry     beta= 0.70
     Davidson diagonalization with overlap
     ethr =  1.00E-06,  avg # of iterations =  1.3

     Threshold (ethr) on eigenvalues was too large:
     Diagonalizing with lowered threshold

     Davidson diagonalization with overlap
     ethr =  1.58E-09,  avg # of iterations =  3.0

     total cpu time spent up to now is     7549.9 secs

     total energy              =    -438.68747534 Ry
     Harris-Foulkes estimate   =    -438.68634516 Ry
     estimated scf accuracy    <       0.00000079 Ry

     iteration #  2     ecut=    20.00 Ry     beta= 0.70
     Davidson diagonalization with overlap
     ethr =  1.52E-09,  avg # of iterations =  3.2

     total cpu time spent up to now is     7571.2 secs

     total energy              =    -438.68747620 Ry
     Harris-Foulkes estimate   =    -438.68747661 Ry
     estimated scf accuracy    <       0.00000091 Ry

     iteration #  3     ecut=    20.00 Ry     beta= 0.70
     Davidson diagonalization with overlap
     ethr =  1.52E-09,  avg # of iterations =  2.1

     total cpu time spent up to now is     7586.4 secs

     total energy              =    -438.68747626 Ry
     Harris-Foulkes estimate   =    -438.68747630 Ry
     estimated scf accuracy    <       0.00000009 Ry

     iteration #  4     ecut=    20.00 Ry     beta= 0.70
     Davidson diagonalization with overlap
     ethr =  1.78E-10,  avg # of iterations =  2.0

     total cpu time spent up to now is     7599.4 secs

     total energy              =    -438.68747626 Ry
     Harris-Foulkes estimate   =    -438.68747627 Ry
     estimated scf accuracy    <       0.00000003 Ry

     iteration #  5     ecut=    20.00 Ry     beta= 0.70
     Davidson diagonalization with overlap
     ethr =  5.61E-11,  avg # of iterations =  2.4

     total cpu time spent up to now is     7616.5 secs

     total energy              =    -438.68747626 Ry
     Harris-Foulkes estimate   =    -438.68747626 Ry
     estimated scf accuracy    <          1.1E-09 Ry

     iteration #  6     ecut=    20.00 Ry     beta= 0.70
     Davidson diagonalization with overlap
     ethr =  2.06E-12,  avg # of iterations =  3.0

     total cpu time spent up to now is     7635.7 secs

     total energy              =    -438.68747626 Ry
     Harris-Foulkes estimate   =    -438.68747626 Ry
     estimated scf accuracy    <          1.6E-10 Ry

     iteration #  7     ecut=    20.00 Ry     beta= 0.70
     Davidson diagonalization with overlap
     ethr =  3.03E-13,  avg # of iterations =  2.2

     total cpu time spent up to now is     7650.1 secs

     total energy              =    -438.68747626 Ry
     Harris-Foulkes estimate   =    -438.68747626 Ry
     estimated scf accuracy    <          3.3E-11 Ry

     iteration #  8     ecut=    20.00 Ry     beta= 0.70
     Davidson diagonalization with overlap
     ethr =  1.00E-13,  avg # of iterations =  2.0

     total cpu time spent up to now is     7664.9 secs

     End of self-consistent calculation

     Number of k-points >= 100: set verbosity='high' to print the bands.

     highest occupied level (ev):    33.3047

!    total energy              =    -438.68747626 Ry
     Harris-Foulkes estimate   =    -438.68747626 Ry
     estimated scf accuracy    <          2.0E-13 Ry

     The total energy is the sum of the following terms:

     one-electron contribution =      52.76021422 Ry
     hartree contribution      =      52.77396480 Ry
     xc contribution           =    -126.37585108 Ry
     ewald contribution        =    -417.84580420 Ry

     convergence has been achieved in   8 iterations

     Forces acting on atoms (cartesian axes, Ry/au):

     atom    1 type  1   force =    -0.00232332   -0.00232332    0.00000000
     atom    2 type  1   force =     0.00009506    0.00009506    0.00000000
     atom    3 type  2   force =     0.00047527   -0.00057797    0.00000000
     atom    4 type  2   force =    -0.00057797    0.00047527    0.00000000
     atom    5 type  2   force =     0.00178876    0.00178876    0.00000000
     atom    6 type  2   force =     0.00054220    0.00054220    0.00000000

     Total force =     0.004350     Total SCF correction =     0.000002


     Computing stress (Cartesian axis) and pressure

          total   stress  (Ry/bohr**3)                   (kbar)     P=   -6.75
  -0.00002389   0.01526033   0.00000000         -3.51   2244.87      0.00
   0.01526033  -0.00002389   0.00000000       2244.87     -3.51      0.00
   0.00000000   0.00000000  -0.00008979          0.00      0.00    -13.21


     bfgs converged in  40 scf cycles and  33 bfgs steps
     (criteria: energy <  1.0E-10 Ry, force <  1.0E-09Ry/Bohr, cell <  5.0E-01kbar)

     End of BFGS Geometry Optimization

     Final enthalpy =    -438.6874762628 Ry
Begin final coordinates
     new unit-cell volume =    208.67592 a.u.^3 (    30.92258 Ang^3 )
     density =     16.18600 g/cm^3

CELL_PARAMETERS (alat=  9.11000000)
   0.734330285   0.000000000   0.000000000
   0.000000000   0.734330285   0.000000000
   0.000000000   0.000000000   0.511840121

ATOMIC_POSITIONS (crystal)
Sn       0.052512428   0.052512428   0.000000000
Sn       0.556831546   0.556831546   0.500000000
O        0.691839600   0.108480836   0.500000000
O        0.108480836   0.691839600   0.500000000
O        0.350434040   0.350434040   0.000000000
O        0.737901550   0.737901550   0.000000000
End final coordinates



     A final scf calculation at the relaxed structure.
     The G-vectors are recalculated for the final unit cell
     Results may differ from those at the preceding step.
 
     Parallelization info
     --------------------
     sticks:   dense  smooth     PW     G-vecs:    dense   smooth      PW
     Min         146     146     50                 1256     1256     274
     Max         147     147     51                 1257     1257     275
     Sum         293     293    101                 2513     2513     549
 


     bravais-lattice index     =            6
     lattice parameter (alat)  =       9.1100  a.u.
     unit-cell volume          =     208.6759 (a.u.)^3
     number of atoms/cell      =            6
     number of atomic types    =            2
     number of electrons       =        52.00
     number of Kohn-Sham states=           26
     kinetic-energy cutoff     =      20.0000  Ry
     charge density cutoff     =      80.0000  Ry
     convergence threshold     =      1.0E-12
     mixing beta               =       0.7000
     number of iterations used =            8  plain     mixing
     Exchange-correlation      = PBE ( 1  4  3  4 0 0)

     celldm(1)=   9.110000  celldm(2)=   0.000000  celldm(3)=   0.670000
     celldm(4)=   0.000000  celldm(5)=   0.000000  celldm(6)=   0.000000

     crystal axes: (cart. coord. in units of alat)
               a(1) = (   0.734330   0.000000   0.000000 )  
               a(2) = (   0.000000   0.734330   0.000000 )  
               a(3) = (   0.000000   0.000000   0.511840 )  

     reciprocal axes: (cart. coord. in units 2 pi/alat)
               b(1) = (  1.361785  0.000000  0.000000 )  
               b(2) = (  0.000000  1.361785  0.000000 )  
               b(3) = (  0.000000  0.000000  1.953735 )  


     PseudoPot. # 1 for Sn read from file:
     ../../Pseudo_potentials/Sn_PBE.upf
     MD5 check sum: 78e6386ae56e929f0568ae8bf606a80c
     Pseudo is Norm-conserving + core correction, Zval = 14.0
     Generated using ONCVPSP code by D. R. Hamann
     Using radial grid of 1628 points,  6 beta functions with: 
                l(1) =   0
                l(2) =   0
                l(3) =   1
                l(4) =   1
                l(5) =   2
                l(6) =   2

     PseudoPot. # 2 for O  read from file:
     ../../Pseudo_potentials/O_PBE.upf
     MD5 check sum: 3e3f909f7470e8921608ab6b1f57bbae
     Pseudo is Norm-conserving + core correction, Zval =  6.0
     Generated using ONCVPSP code by D. R. Hamann
     Using radial grid of  936 points,  5 beta functions with: 
                l(1) =   0
                l(2) =   0
                l(3) =   1
                l(4) =   1
                l(5) =   2

     atomic species   valence    mass     pseudopotential
        Sn            14.00   118.71000     Sn( 1.00)
        O              6.00    15.99900     O ( 1.00)

      4 Sym. Ops. (no inversion) found



   Cartesian axes

     site n.     atom                  positions (alat units)
         1           Sn  tau(   1) = (   0.0385615   0.0385615   0.0000000  )
         2           Sn  tau(   2) = (   0.4088983   0.4088983   0.2559201  )
         3           O   tau(   3) = (   0.5080388   0.0796608   0.2559201  )
         4           O   tau(   4) = (   0.0796608   0.5080388   0.2559201  )
         5           O   tau(   5) = (   0.2573343   0.2573343   0.0000000  )
         6           O   tau(   6) = (   0.5418635   0.5418635   0.0000000  )

     number of k points=   301

     Number of k-points >= 100: set verbosity='high' to print them.

     Dense  grid:     2513 G-vectors     FFT dimensions: (  20,  20,  15)

     Estimated max dynamical RAM per process >      25.04 MB

     Estimated total dynamical RAM >      50.09 MB

     Check: negative/imaginary core charge=   -0.006003    0.000000

     Initial potential from superposition of free atoms
     Check: negative starting charge=   -0.022777

     starting charge   51.99690, renormalised to   52.00000

     negative rho (up, down):  2.278E-02 0.000E+00
     Starting wfc are   34 randomized atomic wfcs

     Writing output data file SnO2.save

     total cpu time spent up to now is     7674.5 secs

     Self-consistent Calculation

     iteration #  1     ecut=    20.00 Ry     beta= 0.70
     Davidson diagonalization with overlap
     ethr =  1.00E-06,  avg # of iterations =  9.0

     negative rho (up, down):  6.574E-03 0.000E+00

     total cpu time spent up to now is     7700.4 secs

     total energy              =    -409.49814201 Ry
     Harris-Foulkes estimate   =    -416.99331169 Ry
     estimated scf accuracy    <       9.88447795 Ry

     iteration #  2     ecut=    20.00 Ry     beta= 0.70
     Davidson diagonalization with overlap
     ethr =  1.00E-02,  avg # of iterations =  2.5

     negative rho (up, down):  1.782E-03 0.000E+00

     total cpu time spent up to now is     7710.5 secs

     total energy              =    -411.34747596 Ry
     Harris-Foulkes estimate   =    -411.75954157 Ry
     estimated scf accuracy    <       0.71709047 Ry

     iteration #  3     ecut=    20.00 Ry     beta= 0.70
     Davidson diagonalization with overlap
     ethr =  1.38E-03,  avg # of iterations =  2.6

     negative rho (up, down):  1.363E-04 0.000E+00

     total cpu time spent up to now is     7719.6 secs

     total energy              =    -411.46713638 Ry
     Harris-Foulkes estimate   =    -411.51293946 Ry
     estimated scf accuracy    <       0.08916475 Ry

     iteration #  4     ecut=    20.00 Ry     beta= 0.70
     Davidson diagonalization with overlap
     ethr =  1.71E-04,  avg # of iterations =  2.6

     total cpu time spent up to now is     7728.6 secs

     total energy              =    -411.48170230 Ry
     Harris-Foulkes estimate   =    -411.48858966 Ry
     estimated scf accuracy    <       0.01151803 Ry

     iteration #  5     ecut=    20.00 Ry     beta= 0.70
     Davidson diagonalization with overlap
     ethr =  2.22E-05,  avg # of iterations =  3.0

     total cpu time spent up to now is     7739.0 secs

     total energy              =    -411.48458613 Ry
     Harris-Foulkes estimate   =    -411.48598914 Ry
     estimated scf accuracy    <       0.00251834 Ry

     iteration #  6     ecut=    20.00 Ry     beta= 0.70
     Davidson diagonalization with overlap
     ethr =  4.84E-06,  avg # of iterations =  2.1

     total cpu time spent up to now is     7747.9 secs

     total energy              =    -411.48521792 Ry
     Harris-Foulkes estimate   =    -411.48528434 Ry
     estimated scf accuracy    <       0.00012867 Ry

     iteration #  7     ecut=    20.00 Ry     beta= 0.70
     Davidson diagonalization with overlap
     ethr =  2.47E-07,  avg # of iterations =  2.7

     total cpu time spent up to now is     7757.9 secs

     total energy              =    -411.48525056 Ry
     Harris-Foulkes estimate   =    -411.48525260 Ry
     estimated scf accuracy    <       0.00000594 Ry

     iteration #  8     ecut=    20.00 Ry     beta= 0.70
     Davidson diagonalization with overlap
     ethr =  1.14E-08,  avg # of iterations =  2.9

     total cpu time spent up to now is     7767.3 secs

     total energy              =    -411.48525171 Ry
     Harris-Foulkes estimate   =    -411.48525190 Ry
     estimated scf accuracy    <       0.00000038 Ry

     iteration #  9     ecut=    20.00 Ry     beta= 0.70
     Davidson diagonalization with overlap
     ethr =  7.21E-10,  avg # of iterations =  3.0

     total cpu time spent up to now is     7777.2 secs

     total energy              =    -411.48525181 Ry
     Harris-Foulkes estimate   =    -411.48525182 Ry
     estimated scf accuracy    <       0.00000003 Ry

     iteration # 10     ecut=    20.00 Ry     beta= 0.70
     Davidson diagonalization with overlap
     ethr =  5.93E-11,  avg # of iterations =  2.9

     total cpu time spent up to now is     7786.4 secs

     total energy              =    -411.48525181 Ry
     Harris-Foulkes estimate   =    -411.48525181 Ry
     estimated scf accuracy    <          4.3E-10 Ry

     iteration # 11     ecut=    20.00 Ry     beta= 0.70
     Davidson diagonalization with overlap
     ethr =  8.22E-13,  avg # of iterations =  2.9

     total cpu time spent up to now is     7796.8 secs

     total energy              =    -411.48525181 Ry
     Harris-Foulkes estimate   =    -411.48525181 Ry
     estimated scf accuracy    <          1.4E-11 Ry

     iteration # 12     ecut=    20.00 Ry     beta= 0.70
     Davidson diagonalization with overlap
     ethr =  1.00E-13,  avg # of iterations =  1.5

     total cpu time spent up to now is     7803.4 secs

     End of self-consistent calculation

     Number of k-points >= 100: set verbosity='high' to print the bands.

     highest occupied level (ev):    39.4980

!    total energy              =    -411.48525181 Ry
     Harris-Foulkes estimate   =    -411.48525181 Ry
     estimated scf accuracy    <          5.4E-13 Ry

     The total energy is the sum of the following terms:

     one-electron contribution =      89.56198835 Ry
     hartree contribution      =      36.18015916 Ry
     xc contribution           =    -119.38159510 Ry
     ewald contribution        =    -417.84580422 Ry

     convergence has been achieved in  12 iterations

     Forces acting on atoms (cartesian axes, Ry/au):

     atom    1 type  1   force =     0.26918250    0.26918250    0.00000000
     atom    2 type  1   force =     0.20066988    0.20066988    0.00000000
     atom    3 type  2   force =    -0.26913849   -0.18010822    0.00000000
     atom    4 type  2   force =    -0.18010822   -0.26913849    0.00000000
     atom    5 type  2   force =    -0.04613226   -0.04613226    0.00000000
     atom    6 type  2   force =     0.02552659    0.02552659    0.00000000

     Total force =     0.663900     Total SCF correction =     0.000002


     Computing stress (Cartesian axis) and pressure

          total   stress  (Ry/bohr**3)                   (kbar)     P=********
  -0.12854653   0.02005482   0.00000000     -18909.84   2950.17      0.00
   0.02005482  -0.12854653   0.00000000       2950.17 -18909.84      0.00
   0.00000000   0.00000000  -0.11505440          0.00      0.00 -16925.08


     Writing output data file SnO2.save
 
     init_run     :      8.62s CPU      8.98s WALL (       2 calls)
     electrons    :   7249.23s CPU   7511.80s WALL (      41 calls)
     update_pot   :     14.83s CPU     15.27s WALL (      39 calls)
     forces       :     75.76s CPU     78.29s WALL (      41 calls)
     stress       :    173.02s CPU    176.39s WALL (      41 calls)

     Called by init_run:
     wfcinit      :      8.16s CPU      8.49s WALL (       2 calls)
     potinit      :      0.12s CPU      0.12s WALL (       2 calls)
     hinit0       :      0.32s CPU      0.35s WALL (       2 calls)

     Called by electrons:
     c_bands      :   6645.47s CPU   6871.39s WALL (     425 calls)
     sum_band     :    600.84s CPU    635.31s WALL (     425 calls)
     v_of_rho     :      2.40s CPU      2.44s WALL (     462 calls)
     mix_rho      :      0.52s CPU      0.60s WALL (     425 calls)

     Called by c_bands:
     init_us_2    :     67.81s CPU    108.77s WALL (  281134 calls)
     cegterg      :   6057.22s CPU   6268.75s WALL (  127925 calls)

     Called by sum_band:

     Called by *egterg:
     h_psi        :   3982.68s CPU   4255.01s WALL (  458374 calls)
     g_psi        :     35.23s CPU     44.24s WALL (  329847 calls)
     cdiaghg      :   1071.13s CPU   1057.79s WALL (  444829 calls)

     Called by h_psi:
     h_psi:pot    :   3969.92s CPU   4234.92s WALL (  458374 calls)
     h_psi:calbec :    382.84s CPU    382.53s WALL (  458374 calls)
     vloc_psi     :   3412.47s CPU   3485.43s WALL (  458374 calls)
     add_vuspsi   :    173.88s CPU    364.18s WALL (  458374 calls)

     General routines
     calbec       :    460.51s CPU    442.95s WALL (  520079 calls)
     fft          :      1.66s CPU      1.59s WALL (    5688 calls)
     ffts         :      0.12s CPU      0.12s WALL (     425 calls)
     fftw         :   3959.43s CPU   3762.92s WALL (23157750 calls)
 
     Parallel routines
     fft_scatt_xy :     33.71s CPU    292.80s WALL (23163863 calls)
     fft_scatt_yz :   3635.13s CPU    945.60s WALL (23163863 calls)
 
     PWSCF        :     2h 5m CPU        2h10m WALL

 
   This run was terminated on:  17:50:52   8Apr2018            

=------------------------------------------------------------------------------=
   JOB DONE.
=------------------------------------------------------------------------------=
