
     Program PWSCF v.6.2.2 starts on  9Apr2018 at  6:12:50 

     This program is part of the open-source Quantum ESPRESSO suite
     for quantum simulation of materials; please cite
         "P. Giannozzi et al., J. Phys.:Condens. Matter 21 395502 (2009);
         "P. Giannozzi et al., J. Phys.:Condens. Matter 29 465901 (2017);
          URL http://www.quantum-espresso.org", 
     in publications or presentations arising from this work. More details at
     http://www.quantum-espresso.org/quote

     Parallel version (MPI), running on     2 processors

     MPI processes distributed on     1 nodes
     R & G space division:  proc/nbgrp/npool/nimage =       2
     Reading input from Conv_acell-ecut.in

     Current dimensions of program PWSCF are:
     Max number of different atomic species (ntypx) = 10
     Max number of k-points (npk) =  40000
     Max angular momentum in pseudopotentials (lmaxx) =  3

     Subspace diagonalization in iterative solution of the eigenvalue problem:
     a serial algorithm will be used

 
     Parallelization info
     --------------------
     sticks:   dense  smooth     PW     G-vecs:    dense   smooth      PW
     Min         524     524    166                 8640     8640    1480
     Max         525     525    167                 8641     8641    1481
     Sum        1049    1049    333                17281    17281    2961
 


     bravais-lattice index     =            6
     lattice parameter (alat)  =       9.1100  a.u.
     unit-cell volume          =     506.5589 (a.u.)^3
     number of atoms/cell      =            6
     number of atomic types    =            2
     number of electrons       =        52.00
     number of Kohn-Sham states=           26
     kinetic-energy cutoff     =      40.0000  Ry
     charge density cutoff     =     160.0000  Ry
     convergence threshold     =      1.0E-12
     mixing beta               =       0.7000
     number of iterations used =            8  plain     mixing
     Exchange-correlation      = PBE ( 1  4  3  4 0 0)
     nstep                     =           50


     celldm(1)=   9.110000  celldm(2)=   0.000000  celldm(3)=   0.670000
     celldm(4)=   0.000000  celldm(5)=   0.000000  celldm(6)=   0.000000

     crystal axes: (cart. coord. in units of alat)
               a(1) = (   1.000000   0.000000   0.000000 )  
               a(2) = (   0.000000   1.000000   0.000000 )  
               a(3) = (   0.000000   0.000000   0.670000 )  

     reciprocal axes: (cart. coord. in units 2 pi/alat)
               b(1) = (  1.000000  0.000000  0.000000 )  
               b(2) = (  0.000000  1.000000  0.000000 )  
               b(3) = (  0.000000  0.000000  1.492537 )  


     PseudoPot. # 1 for Sn read from file:
     ../../Pseudo_potentials/Sn_PBE.upf
     MD5 check sum: 78e6386ae56e929f0568ae8bf606a80c
     Pseudo is Norm-conserving + core correction, Zval = 14.0
     Generated using ONCVPSP code by D. R. Hamann
     Using radial grid of 1628 points,  6 beta functions with: 
                l(1) =   0
                l(2) =   0
                l(3) =   1
                l(4) =   1
                l(5) =   2
                l(6) =   2

     PseudoPot. # 2 for O  read from file:
     ../../Pseudo_potentials/O_PBE.upf
     MD5 check sum: 3e3f909f7470e8921608ab6b1f57bbae
     Pseudo is Norm-conserving + core correction, Zval =  6.0
     Generated using ONCVPSP code by D. R. Hamann
     Using radial grid of  936 points,  5 beta functions with: 
                l(1) =   0
                l(2) =   0
                l(3) =   1
                l(4) =   1
                l(5) =   2

     atomic species   valence    mass     pseudopotential
        Sn            14.00   118.71000     Sn( 1.00)
        O              6.00    15.99900     O ( 1.00)

      4 Sym. Ops. (no inversion) found



   Cartesian axes

     site n.     atom                  positions (alat units)
         1           Sn  tau(   1) = (   0.0000000   0.0000000   0.0000000  )
         2           Sn  tau(   2) = (   0.5000000   0.5000000   0.3350000  )
         3           O   tau(   3) = (   0.8060000   0.1930000   0.3350000  )
         4           O   tau(   4) = (   0.1930000   0.8060000   0.3350000  )
         5           O   tau(   5) = (   0.3060000   0.3060000   0.0000000  )
         6           O   tau(   6) = (   0.6930000   0.6930000   0.0000000  )

     number of k points=   301

     Number of k-points >= 100: set verbosity='high' to print them.

     Dense  grid:    17281 G-vectors     FFT dimensions: (  40,  40,  25)

     Estimated max dynamical RAM per process >     146.23 MB

     Estimated total dynamical RAM >     292.45 MB

     Check: negative/imaginary core charge=   -0.000513    0.000000

     Initial potential from superposition of free atoms

     starting charge   51.99690, renormalised to   52.00000

     negative rho (up, down):  7.658E-05 0.000E+00
     Starting wfc are   34 randomized atomic wfcs

     total cpu time spent up to now is       18.2 secs

     Self-consistent Calculation

     iteration #  1     ecut=    40.00 Ry     beta= 0.70
     Davidson diagonalization with overlap
     ethr =  1.00E-02,  avg # of iterations =  2.0

     negative rho (up, down):  2.027E-05 0.000E+00

     total cpu time spent up to now is       65.4 secs

     total energy              =    -445.04042431 Ry
     Harris-Foulkes estimate   =    -445.89042100 Ry
     estimated scf accuracy    <       1.20969109 Ry

     iteration #  2     ecut=    40.00 Ry     beta= 0.70
     Davidson diagonalization with overlap
     ethr =  2.33E-03,  avg # of iterations =  3.0

     negative rho (up, down):  9.036E-06 0.000E+00

     total cpu time spent up to now is      118.5 secs

     total energy              =    -445.32569418 Ry
     Harris-Foulkes estimate   =    -445.82198879 Ry
     estimated scf accuracy    <       0.96933869 Ry

     iteration #  3     ecut=    40.00 Ry     beta= 0.70
     Davidson diagonalization with overlap
     ethr =  1.86E-03,  avg # of iterations =  3.0

     total cpu time spent up to now is      166.5 secs

     total energy              =    -445.53337706 Ry
     Harris-Foulkes estimate   =    -445.53494643 Ry
     estimated scf accuracy    <       0.00920160 Ry

     iteration #  4     ecut=    40.00 Ry     beta= 0.70
     Davidson diagonalization with overlap
     ethr =  1.77E-05,  avg # of iterations =  2.2

     total cpu time spent up to now is      209.8 secs

     total energy              =    -445.53552138 Ry
     Harris-Foulkes estimate   =    -445.53559743 Ry
     estimated scf accuracy    <       0.00027671 Ry

     iteration #  5     ecut=    40.00 Ry     beta= 0.70
     Davidson diagonalization with overlap
     ethr =  5.32E-07,  avg # of iterations =  3.1

     total cpu time spent up to now is      258.9 secs

     total energy              =    -445.53575526 Ry
     Harris-Foulkes estimate   =    -445.53575848 Ry
     estimated scf accuracy    <       0.00001023 Ry

     iteration #  6     ecut=    40.00 Ry     beta= 0.70
     Davidson diagonalization with overlap
     ethr =  1.97E-08,  avg # of iterations =  3.1

     total cpu time spent up to now is      314.1 secs

     total energy              =    -445.53579607 Ry
     Harris-Foulkes estimate   =    -445.53579749 Ry
     estimated scf accuracy    <       0.00000376 Ry

     iteration #  7     ecut=    40.00 Ry     beta= 0.70
     Davidson diagonalization with overlap
     ethr =  7.24E-09,  avg # of iterations =  3.2

     total cpu time spent up to now is      361.9 secs

     total energy              =    -445.53579697 Ry
     Harris-Foulkes estimate   =    -445.53579710 Ry
     estimated scf accuracy    <       0.00000051 Ry

     iteration #  8     ecut=    40.00 Ry     beta= 0.70
     Davidson diagonalization with overlap
     ethr =  9.87E-10,  avg # of iterations =  2.6

     total cpu time spent up to now is      405.6 secs

     total energy              =    -445.53579702 Ry
     Harris-Foulkes estimate   =    -445.53579704 Ry
     estimated scf accuracy    <       0.00000003 Ry

     iteration #  9     ecut=    40.00 Ry     beta= 0.70
     Davidson diagonalization with overlap
     ethr =  6.32E-11,  avg # of iterations =  3.0

     total cpu time spent up to now is      460.1 secs

     total energy              =    -445.53579703 Ry
     Harris-Foulkes estimate   =    -445.53579703 Ry
     estimated scf accuracy    <          6.1E-09 Ry

     iteration # 10     ecut=    40.00 Ry     beta= 0.70
     Davidson diagonalization with overlap
     ethr =  1.17E-11,  avg # of iterations =  3.1

     total cpu time spent up to now is      507.7 secs

     total energy              =    -445.53579703 Ry
     Harris-Foulkes estimate   =    -445.53579703 Ry
     estimated scf accuracy    <          1.4E-09 Ry

     iteration # 11     ecut=    40.00 Ry     beta= 0.70
     Davidson diagonalization with overlap
     ethr =  2.65E-12,  avg # of iterations =  3.0

     total cpu time spent up to now is      553.9 secs

     total energy              =    -445.53579703 Ry
     Harris-Foulkes estimate   =    -445.53579703 Ry
     estimated scf accuracy    <          9.5E-12 Ry

     iteration # 12     ecut=    40.00 Ry     beta= 0.70
     Davidson diagonalization with overlap
     ethr =  1.00E-13,  avg # of iterations =  2.3

     total cpu time spent up to now is      593.8 secs

     total energy              =    -445.53579703 Ry
     Harris-Foulkes estimate   =    -445.53579703 Ry
     estimated scf accuracy    <          1.7E-12 Ry

     iteration # 13     ecut=    40.00 Ry     beta= 0.70
     Davidson diagonalization with overlap
     ethr =  1.00E-13,  avg # of iterations =  1.0

     total cpu time spent up to now is      629.2 secs

     End of self-consistent calculation

     Number of k-points >= 100: set verbosity='high' to print the bands.

     highest occupied level (ev):     9.1795

!    total energy              =    -445.53579703 Ry
     Harris-Foulkes estimate   =    -445.53579703 Ry
     estimated scf accuracy    <          1.5E-13 Ry

     The total energy is the sum of the following terms:

     one-electron contribution =    -120.46547569 Ry
     hartree contribution      =      98.79194879 Ry
     xc contribution           =    -121.38093433 Ry
     ewald contribution        =    -302.48133580 Ry

     convergence has been achieved in  13 iterations

     Forces acting on atoms (cartesian axes, Ry/au):

     atom    1 type  1   force =    -0.00106121   -0.00106121    0.00000000
     atom    2 type  1   force =    -0.00134657   -0.00134657    0.00000000
     atom    3 type  2   force =     0.00016565   -0.00061722   -0.00000000
     atom    4 type  2   force =    -0.00061722    0.00016565    0.00000000
     atom    5 type  2   force =     0.00109357    0.00109357    0.00000000
     atom    6 type  2   force =     0.00176578    0.00176578    0.00000000

     Total force =     0.003915     Total SCF correction =     0.000001


     Computing stress (Cartesian axis) and pressure

          total   stress  (Ry/bohr**3)                   (kbar)     P=-2575.06
  -0.01762440   0.00000033  -0.00000000      -2592.64      0.05     -0.00
   0.00000033  -0.01762440   0.00000000          0.05  -2592.64      0.00
   0.00000000  -0.00000000  -0.01726589          0.00     -0.00  -2539.90


     BFGS Geometry Optimization

     number of scf cycles    =   1
     number of bfgs steps    =   0

     enthalpy new            =    -445.5357970301 Ry

     new trust radius        =       0.5000000000 bohr
     new conv_thr            =            1.0E-12 Ry

     new unit-cell volume =    356.71759 a.u.^3 (    52.86009 Ang^3 )
     density =      9.46864 g/cm^3

CELL_PARAMETERS (alat=  9.11000000)
   0.888922769   0.000000000   0.000000000
   0.000000000   0.888922769   0.000000000
   0.000000000   0.000000000   0.597092118

ATOMIC_POSITIONS (crystal)
Sn      -0.000029367  -0.000029367   0.000000000
Sn       0.499962737   0.499962737   0.500000000
O        0.806004584   0.192982920   0.500000000
O        0.192982920   0.806004584   0.500000000
O        0.306030262   0.306030262   0.000000000
O        0.693048864   0.693048864   0.000000000



     Writing output data file SnO2.save
     NEW-OLD atomic charge density approx. for the potential

     Check: negative/imaginary core charge=   -0.000169    0.000000

     negative rho (up, down):  5.383E-02 0.000E+00
     extrapolated charge   30.15840, renormalised to   52.00000

     total cpu time spent up to now is      647.5 secs

     Self-consistent Calculation

     iteration #  1     ecut=    40.00 Ry     beta= 0.70
     Davidson diagonalization with overlap
     ethr =  1.00E-06,  avg # of iterations = 10.7

     total cpu time spent up to now is      780.0 secs

     total energy              =    -432.97291140 Ry
     Harris-Foulkes estimate   =    -478.21840710 Ry
     estimated scf accuracy    <      17.84502504 Ry

     iteration #  2     ecut=    40.00 Ry     beta= 0.70
     Davidson diagonalization with overlap
     ethr =  1.00E-02,  avg # of iterations =  3.0

     total cpu time spent up to now is      840.8 secs

     total energy              =    -445.48672087 Ry
     Harris-Foulkes estimate   =    -450.19103775 Ry
     estimated scf accuracy    <       9.46140440 Ry

     iteration #  3     ecut=    40.00 Ry     beta= 0.70
     Davidson diagonalization with overlap
     ethr =  1.00E-02,  avg # of iterations =  2.0

     total cpu time spent up to now is      887.3 secs

     total energy              =    -446.67703959 Ry
     Harris-Foulkes estimate   =    -446.84044959 Ry
     estimated scf accuracy    <       0.32883689 Ry

     iteration #  4     ecut=    40.00 Ry     beta= 0.70
     Davidson diagonalization with overlap
     ethr =  6.32E-04,  avg # of iterations =  2.0

     total cpu time spent up to now is      930.8 secs

     total energy              =    -446.69071677 Ry
     Harris-Foulkes estimate   =    -446.72546720 Ry
     estimated scf accuracy    <       0.06428216 Ry

     iteration #  5     ecut=    40.00 Ry     beta= 0.70
     Davidson diagonalization with overlap
     ethr =  1.24E-04,  avg # of iterations =  2.0

     total cpu time spent up to now is      977.7 secs

     total energy              =    -446.70503195 Ry
     Harris-Foulkes estimate   =    -446.70525838 Ry
     estimated scf accuracy    <       0.00068896 Ry

     iteration #  6     ecut=    40.00 Ry     beta= 0.70
     Davidson diagonalization with overlap
     ethr =  1.32E-06,  avg # of iterations =  2.4

     total cpu time spent up to now is     1026.6 secs

     total energy              =    -446.70516467 Ry
     Harris-Foulkes estimate   =    -446.70520388 Ry
     estimated scf accuracy    <       0.00008859 Ry

     iteration #  7     ecut=    40.00 Ry     beta= 0.70
     Davidson diagonalization with overlap
     ethr =  1.70E-07,  avg # of iterations =  2.0

     total cpu time spent up to now is     1070.9 secs

     total energy              =    -446.70517240 Ry
     Harris-Foulkes estimate   =    -446.70517603 Ry
     estimated scf accuracy    <       0.00000651 Ry

     iteration #  8     ecut=    40.00 Ry     beta= 0.70
     Davidson diagonalization with overlap
     ethr =  1.25E-08,  avg # of iterations =  2.1

     total cpu time spent up to now is     1121.7 secs

     total energy              =    -446.70517374 Ry
     Harris-Foulkes estimate   =    -446.70517377 Ry
     estimated scf accuracy    <       0.00000008 Ry

     iteration #  9     ecut=    40.00 Ry     beta= 0.70
     Davidson diagonalization with overlap
     ethr =  1.56E-10,  avg # of iterations =  3.0

     total cpu time spent up to now is     1177.3 secs

     total energy              =    -446.70517378 Ry
     Harris-Foulkes estimate   =    -446.70517378 Ry
     estimated scf accuracy    <       0.00000003 Ry

     iteration # 10     ecut=    40.00 Ry     beta= 0.70
     Davidson diagonalization with overlap
     ethr =  4.95E-11,  avg # of iterations =  2.3

     total cpu time spent up to now is     1221.5 secs

     total energy              =    -446.70517378 Ry
     Harris-Foulkes estimate   =    -446.70517378 Ry
     estimated scf accuracy    <          4.2E-09 Ry

     iteration # 11     ecut=    40.00 Ry     beta= 0.70
     Davidson diagonalization with overlap
     ethr =  8.08E-12,  avg # of iterations =  2.0

     total cpu time spent up to now is     1269.2 secs

     total energy              =    -446.70517378 Ry
     Harris-Foulkes estimate   =    -446.70517378 Ry
     estimated scf accuracy    <          7.9E-11 Ry

     iteration # 12     ecut=    40.00 Ry     beta= 0.70
     Davidson diagonalization with overlap
     ethr =  1.52E-13,  avg # of iterations =  2.3

     total cpu time spent up to now is     1320.6 secs

     total energy              =    -446.70517378 Ry
     Harris-Foulkes estimate   =    -446.70517378 Ry
     estimated scf accuracy    <          8.1E-12 Ry

     iteration # 13     ecut=    40.00 Ry     beta= 0.70
     Davidson diagonalization with overlap
     ethr =  1.00E-13,  avg # of iterations =  1.0

     total cpu time spent up to now is     1356.3 secs

     End of self-consistent calculation

     Number of k-points >= 100: set verbosity='high' to print the bands.

     highest occupied level (ev):    15.0805

!    total energy              =    -446.70517378 Ry
     Harris-Foulkes estimate   =    -446.70517378 Ry
     estimated scf accuracy    <          5.8E-13 Ry

     The total energy is the sum of the following terms:

     one-electron contribution =     -68.16141243 Ry
     hartree contribution      =      85.46207359 Ry
     xc contribution           =    -123.92450943 Ry
     ewald contribution        =    -340.08132550 Ry

     convergence has been achieved in  13 iterations

     Forces acting on atoms (cartesian axes, Ry/au):

     atom    1 type  1   force =    -0.00358962   -0.00358962    0.00000000
     atom    2 type  1   force =    -0.00274752   -0.00274752    0.00000000
     atom    3 type  2   force =    -0.05465988    0.05361251    0.00000000
     atom    4 type  2   force =     0.05361251   -0.05465988   -0.00000000
     atom    5 type  2   force =    -0.05009790   -0.05009790    0.00000000
     atom    6 type  2   force =     0.05748241    0.05748241    0.00000000

     Total force =     0.152947     Total SCF correction =     0.000002


     Computing stress (Cartesian axis) and pressure

          total   stress  (Ry/bohr**3)                   (kbar)     P=  685.44
   0.00367053   0.00000163   0.00000000        539.95      0.24      0.00
   0.00000163   0.00367053   0.00000000          0.24    539.95      0.00
   0.00000000   0.00000000   0.00663754          0.00      0.00    976.42


     number of scf cycles    =   2
     number of bfgs steps    =   1

     enthalpy old            =    -445.5357970301 Ry
     enthalpy new            =    -446.7051737823 Ry

     CASE: enthalpy_new < enthalpy_old

     new trust radius        =       0.2145961991 bohr
     new conv_thr            =            1.0E-12 Ry

     new unit-cell volume =    377.95195 a.u.^3 (    56.00670 Ang^3 )
     density =      8.93666 g/cm^3

CELL_PARAMETERS (alat=  9.11000000)
   0.890064483   0.000000000   0.000000000
   0.000000000   0.890064483   0.000000000
   0.000000000   0.000000000   0.631013310

ATOMIC_POSITIONS (crystal)
Sn      -0.000334425  -0.000334425   0.000000000
Sn       0.499721397   0.499721397   0.500000000
O        0.801599094   0.197297317   0.500000000
O        0.197297317   0.801599094   0.500000000
O        0.302006288   0.302006288   0.000000000
O        0.697710330   0.697710330   0.000000000



     Writing output data file SnO2.save
     NEW-OLD atomic charge density approx. for the potential

     Check: negative/imaginary core charge=   -0.000220    0.000000

     negative rho (up, down):  5.665E-06 0.000E+00
     extrapolated charge   54.92133, renormalised to   52.00000

     total cpu time spent up to now is     1374.7 secs

     Self-consistent Calculation

     iteration #  1     ecut=    40.00 Ry     beta= 0.70
     Davidson diagonalization with overlap
     ethr =  1.00E-06,  avg # of iterations =  7.1

     negative rho (up, down):  4.928E-07 0.000E+00

     total cpu time spent up to now is     1473.6 secs

     total energy              =    -446.36517239 Ry
     Harris-Foulkes estimate   =    -442.12982626 Ry
     estimated scf accuracy    <       0.23700385 Ry

     iteration #  2     ecut=    40.00 Ry     beta= 0.70
     Davidson diagonalization with overlap
     ethr =  4.56E-04,  avg # of iterations =  4.0

     total cpu time spent up to now is     1541.4 secs

     total energy              =    -446.74432898 Ry
     Harris-Foulkes estimate   =    -446.91164135 Ry
     estimated scf accuracy    <       0.42402967 Ry

     iteration #  3     ecut=    40.00 Ry     beta= 0.70
     Davidson diagonalization with overlap
     ethr =  4.56E-04,  avg # of iterations =  2.0

     total cpu time spent up to now is     1586.0 secs

     total energy              =    -446.75771198 Ry
     Harris-Foulkes estimate   =    -446.77656065 Ry
     estimated scf accuracy    <       0.06542853 Ry

     iteration #  4     ecut=    40.00 Ry     beta= 0.70
     Davidson diagonalization with overlap
     ethr =  1.26E-04,  avg # of iterations =  1.0

     total cpu time spent up to now is     1621.6 secs

     total energy              =    -446.74348975 Ry
     Harris-Foulkes estimate   =    -446.75955721 Ry
     estimated scf accuracy    <       0.03007640 Ry

     iteration #  5     ecut=    40.00 Ry     beta= 0.70
     Davidson diagonalization with overlap
     ethr =  5.78E-05,  avg # of iterations =  2.0

     total cpu time spent up to now is     1669.2 secs

     total energy              =    -446.74839572 Ry
     Harris-Foulkes estimate   =    -446.74860560 Ry
     estimated scf accuracy    <       0.00029189 Ry

     iteration #  6     ecut=    40.00 Ry     beta= 0.70
     Davidson diagonalization with overlap
     ethr =  5.61E-07,  avg # of iterations =  2.1

     total cpu time spent up to now is     1719.9 secs

     total energy              =    -446.74849654 Ry
     Harris-Foulkes estimate   =    -446.74850364 Ry
     estimated scf accuracy    <       0.00000914 Ry

     iteration #  7     ecut=    40.00 Ry     beta= 0.70
     Davidson diagonalization with overlap
     ethr =  1.76E-08,  avg # of iterations =  2.1

     total cpu time spent up to now is     1771.3 secs

     total energy              =    -446.74849929 Ry
     Harris-Foulkes estimate   =    -446.74850085 Ry
     estimated scf accuracy    <       0.00000330 Ry

     iteration #  8     ecut=    40.00 Ry     beta= 0.70
     Davidson diagonalization with overlap
     ethr =  6.34E-09,  avg # of iterations =  2.0

     total cpu time spent up to now is     1814.6 secs

     total energy              =    -446.74849957 Ry
     Harris-Foulkes estimate   =    -446.74849968 Ry
     estimated scf accuracy    <       0.00000019 Ry

     iteration #  9     ecut=    40.00 Ry     beta= 0.70
     Davidson diagonalization with overlap
     ethr =  3.66E-10,  avg # of iterations =  3.0

     total cpu time spent up to now is     1869.7 secs

     total energy              =    -446.74849963 Ry
     Harris-Foulkes estimate   =    -446.74849964 Ry
     estimated scf accuracy    <          9.7E-09 Ry

     iteration # 10     ecut=    40.00 Ry     beta= 0.70
     Davidson diagonalization with overlap
     ethr =  1.86E-11,  avg # of iterations =  2.0

     total cpu time spent up to now is     1920.9 secs

     total energy              =    -446.74849963 Ry
     Harris-Foulkes estimate   =    -446.74849963 Ry
     estimated scf accuracy    <          3.5E-10 Ry

     iteration # 11     ecut=    40.00 Ry     beta= 0.70
     Davidson diagonalization with overlap
     ethr =  6.71E-13,  avg # of iterations =  3.0

     total cpu time spent up to now is     1974.6 secs

     total energy              =    -446.74849963 Ry
     Harris-Foulkes estimate   =    -446.74849963 Ry
     estimated scf accuracy    <          2.9E-11 Ry

     iteration # 12     ecut=    40.00 Ry     beta= 0.70
     Davidson diagonalization with overlap
     ethr =  1.00E-13,  avg # of iterations =  2.1

     total cpu time spent up to now is     2016.5 secs

     total energy              =    -446.74849963 Ry
     Harris-Foulkes estimate   =    -446.74849963 Ry
     estimated scf accuracy    <          6.2E-12 Ry

     iteration # 13     ecut=    40.00 Ry     beta= 0.70
     Davidson diagonalization with overlap
     ethr =  1.00E-13,  avg # of iterations =  1.0

     total cpu time spent up to now is     2052.4 secs

     End of self-consistent calculation

     Number of k-points >= 100: set verbosity='high' to print the bands.

     highest occupied level (ev):    13.9456

!    total energy              =    -446.74849963 Ry
     Harris-Foulkes estimate   =    -446.74849963 Ry
     estimated scf accuracy    <          1.4E-13 Ry

     The total energy is the sum of the following terms:

     one-electron contribution =     -73.64528375 Ry
     hartree contribution      =      85.90702614 Ry
     xc contribution           =    -123.43890802 Ry
     ewald contribution        =    -335.57133400 Ry

     convergence has been achieved in  13 iterations

     Forces acting on atoms (cartesian axes, Ry/au):

     atom    1 type  1   force =     0.00242166    0.00242166    0.00000000
     atom    2 type  1   force =     0.00095552    0.00095552    0.00000000
     atom    3 type  2   force =     0.04066163   -0.04006470    0.00000000
     atom    4 type  2   force =    -0.04006470    0.04066163   -0.00000000
     atom    5 type  2   force =     0.03832562    0.03832562    0.00000000
     atom    6 type  2   force =    -0.04229974   -0.04229974    0.00000000

     Total force =     0.114223     Total SCF correction =     0.000001


     Computing stress (Cartesian axis) and pressure

          total   stress  (Ry/bohr**3)                   (kbar)     P=  -23.93
   0.00103914   0.00000215   0.00000000        152.86      0.32      0.00
   0.00000215   0.00103914   0.00000000          0.32    152.86      0.00
   0.00000000   0.00000000  -0.00256620          0.00      0.00   -377.50


     number of scf cycles    =   3
     number of bfgs steps    =   2

     enthalpy old            =    -446.7051737823 Ry
     enthalpy new            =    -446.7484996318 Ry

     CASE: enthalpy_new < enthalpy_old

     new trust radius        =       0.0989626921 bohr
     new conv_thr            =            1.0E-12 Ry

     new unit-cell volume =    383.73086 a.u.^3 (    56.86305 Ang^3 )
     density =      8.80208 g/cm^3

CELL_PARAMETERS (alat=  9.11000000)
   0.908479090   0.000000000   0.000000000
   0.000000000   0.908479090   0.000000000
   0.000000000   0.000000000   0.614952711

ATOMIC_POSITIONS (crystal)
Sn      -0.000222535  -0.000222535   0.000000000
Sn       0.499743646   0.499743646   0.500000000
O        0.803599045   0.195322115   0.500000000
O        0.195322115   0.803599045   0.500000000
O        0.303914622   0.303914622   0.000000000
O        0.695643107   0.695643107   0.000000000



     Writing output data file SnO2.save
     NEW-OLD atomic charge density approx. for the potential

     Check: negative/imaginary core charge=   -0.000225    0.000000
     extrapolated charge   52.78306, renormalised to   52.00000

     total cpu time spent up to now is     2070.7 secs

     Self-consistent Calculation

     iteration #  1     ecut=    40.00 Ry     beta= 0.70
     Davidson diagonalization with overlap
     ethr =  1.00E-06,  avg # of iterations =  6.4

     total cpu time spent up to now is     2162.3 secs

     total energy              =    -446.73865397 Ry
     Harris-Foulkes estimate   =    -445.47043352 Ry
     estimated scf accuracy    <       0.01427128 Ry

     iteration #  2     ecut=    40.00 Ry     beta= 0.70
     Davidson diagonalization with overlap
     ethr =  2.74E-05,  avg # of iterations =  4.0

     total cpu time spent up to now is     2229.7 secs

     total energy              =    -446.76300179 Ry
     Harris-Foulkes estimate   =    -446.77351373 Ry
     estimated scf accuracy    <       0.02729274 Ry

     iteration #  3     ecut=    40.00 Ry     beta= 0.70
     Davidson diagonalization with overlap
     ethr =  2.74E-05,  avg # of iterations =  2.0

     total cpu time spent up to now is     2274.2 secs

     total energy              =    -446.76351447 Ry
     Harris-Foulkes estimate   =    -446.76497781 Ry
     estimated scf accuracy    <       0.00449216 Ry

     iteration #  4     ecut=    40.00 Ry     beta= 0.70
     Davidson diagonalization with overlap
     ethr =  8.64E-06,  avg # of iterations =  1.0

     total cpu time spent up to now is     2309.8 secs

     total energy              =    -446.76264156 Ry
     Harris-Foulkes estimate   =    -446.76368200 Ry
     estimated scf accuracy    <       0.00175964 Ry

     iteration #  5     ecut=    40.00 Ry     beta= 0.70
     Davidson diagonalization with overlap
     ethr =  3.38E-06,  avg # of iterations =  2.0

     total cpu time spent up to now is     2360.8 secs

     total energy              =    -446.76306555 Ry
     Harris-Foulkes estimate   =    -446.76308306 Ry
     estimated scf accuracy    <       0.00003080 Ry

     iteration #  6     ecut=    40.00 Ry     beta= 0.70
     Davidson diagonalization with overlap
     ethr =  5.92E-08,  avg # of iterations =  2.5

     total cpu time spent up to now is     2407.6 secs

     total energy              =    -446.76307366 Ry
     Harris-Foulkes estimate   =    -446.76307376 Ry
     estimated scf accuracy    <       0.00000023 Ry

     iteration #  7     ecut=    40.00 Ry     beta= 0.70
     Davidson diagonalization with overlap
     ethr =  4.51E-10,  avg # of iterations =  3.3

     total cpu time spent up to now is     2462.6 secs

     total energy              =    -446.76307375 Ry
     Harris-Foulkes estimate   =    -446.76307379 Ry
     estimated scf accuracy    <       0.00000006 Ry

     iteration #  8     ecut=    40.00 Ry     beta= 0.70
     Davidson diagonalization with overlap
     ethr =  1.21E-10,  avg # of iterations =  3.0

     total cpu time spent up to now is     2511.0 secs

     total energy              =    -446.76307376 Ry
     Harris-Foulkes estimate   =    -446.76307376 Ry
     estimated scf accuracy    <          2.3E-09 Ry

     iteration #  9     ecut=    40.00 Ry     beta= 0.70
     Davidson diagonalization with overlap
     ethr =  4.36E-12,  avg # of iterations =  2.3

     total cpu time spent up to now is     2558.6 secs

     total energy              =    -446.76307376 Ry
     Harris-Foulkes estimate   =    -446.76307376 Ry
     estimated scf accuracy    <          5.5E-10 Ry

     iteration # 10     ecut=    40.00 Ry     beta= 0.70
     Davidson diagonalization with overlap
     ethr =  1.05E-12,  avg # of iterations =  2.0

     total cpu time spent up to now is     2603.6 secs

     total energy              =    -446.76307376 Ry
     Harris-Foulkes estimate   =    -446.76307376 Ry
     estimated scf accuracy    <          1.6E-11 Ry

     iteration # 11     ecut=    40.00 Ry     beta= 0.70
     Davidson diagonalization with overlap
     ethr =  1.00E-13,  avg # of iterations =  2.0

     total cpu time spent up to now is     2643.7 secs

     End of self-consistent calculation

     Number of k-points >= 100: set verbosity='high' to print the bands.

     highest occupied level (ev):    13.6986

!    total energy              =    -446.76307376 Ry
     Harris-Foulkes estimate   =    -446.76307376 Ry
     estimated scf accuracy    <          8.3E-13 Ry

     The total energy is the sum of the following terms:

     one-electron contribution =     -78.80882388 Ry
     hartree contribution      =      87.84576565 Ry
     xc contribution           =    -123.38087452 Ry
     ewald contribution        =    -332.41914101 Ry

     convergence has been achieved in  11 iterations

     Forces acting on atoms (cartesian axes, Ry/au):

     atom    1 type  1   force =     0.00016246    0.00016246    0.00000000
     atom    2 type  1   force =     0.00058949    0.00058949    0.00000000
     atom    3 type  2   force =    -0.01150696    0.01185646    0.00000000
     atom    4 type  2   force =     0.01185646   -0.01150696    0.00000000
     atom    5 type  2   force =    -0.01219527   -0.01219527    0.00000000
     atom    6 type  2   force =     0.01109382    0.01109382    0.00000000

     Total force =     0.033020     Total SCF correction =     0.000003


     Computing stress (Cartesian axis) and pressure

          total   stress  (Ry/bohr**3)                   (kbar)     P= -122.65
  -0.00113059   0.00000126   0.00000000       -166.32      0.19      0.00
   0.00000126  -0.00113059   0.00000000          0.19   -166.32      0.00
   0.00000000   0.00000000  -0.00024007          0.00      0.00    -35.32


     number of scf cycles    =   4
     number of bfgs steps    =   3

     enthalpy old            =    -446.7484996318 Ry
     enthalpy new            =    -446.7630737627 Ry

     CASE: enthalpy_new < enthalpy_old

     new trust radius        =       0.0314559223 bohr
     new conv_thr            =            1.0E-12 Ry

     new unit-cell volume =    378.26063 a.u.^3 (    56.05244 Ang^3 )
     density =      8.92937 g/cm^3

CELL_PARAMETERS (alat=  9.11000000)
   0.901184952   0.000000000   0.000000000
   0.000000000   0.901184952   0.000000000
   0.000000000   0.000000000   0.616038914

ATOMIC_POSITIONS (crystal)
Sn      -0.000187040  -0.000187040   0.000000000
Sn       0.499803549   0.499803549   0.500000000
O        0.803079835   0.195873864   0.500000000
O        0.195873864   0.803079835   0.500000000
O        0.303318673   0.303318673   0.000000000
O        0.696111119   0.696111119   0.000000000



     Writing output data file SnO2.save
     NEW-OLD atomic charge density approx. for the potential

     Check: negative/imaginary core charge=   -0.000214    0.000000
     extrapolated charge   51.24805, renormalised to   52.00000

     total cpu time spent up to now is     2662.1 secs

     Self-consistent Calculation

     iteration #  1     ecut=    40.00 Ry     beta= 0.70
     Davidson diagonalization with overlap
     ethr =  1.00E-06,  avg # of iterations =  4.1

     total cpu time spent up to now is     2740.4 secs

     total energy              =    -446.74345243 Ry
     Harris-Foulkes estimate   =    -447.97472371 Ry
     estimated scf accuracy    <       0.01410614 Ry

     iteration #  2     ecut=    40.00 Ry     beta= 0.70
     Davidson diagonalization with overlap
     ethr =  2.71E-05,  avg # of iterations =  3.8

     total cpu time spent up to now is     2804.3 secs

     total energy              =    -446.76616177 Ry
     Harris-Foulkes estimate   =    -446.77603474 Ry
     estimated scf accuracy    <       0.02514815 Ry

     iteration #  3     ecut=    40.00 Ry     beta= 0.70
     Davidson diagonalization with overlap
     ethr =  2.71E-05,  avg # of iterations =  2.0

     total cpu time spent up to now is     2848.3 secs

     total energy              =    -446.76700745 Ry
     Harris-Foulkes estimate   =    -446.76808881 Ry
     estimated scf accuracy    <       0.00378680 Ry

     iteration #  4     ecut=    40.00 Ry     beta= 0.70
     Davidson diagonalization with overlap
     ethr =  7.28E-06,  avg # of iterations =  1.0

     total cpu time spent up to now is     2883.9 secs

     total energy              =    -446.76620312 Ry
     Harris-Foulkes estimate   =    -446.76711847 Ry
     estimated scf accuracy    <       0.00174125 Ry

     iteration #  5     ecut=    40.00 Ry     beta= 0.70
     Davidson diagonalization with overlap
     ethr =  3.35E-06,  avg # of iterations =  2.0

     total cpu time spent up to now is     2930.4 secs

     total energy              =    -446.76647968 Ry
     Harris-Foulkes estimate   =    -446.76649506 Ry
     estimated scf accuracy    <       0.00002216 Ry

     iteration #  6     ecut=    40.00 Ry     beta= 0.70
     Davidson diagonalization with overlap
     ethr =  4.26E-08,  avg # of iterations =  2.2

     total cpu time spent up to now is     2981.0 secs

     total energy              =    -446.76648698 Ry
     Harris-Foulkes estimate   =    -446.76648705 Ry
     estimated scf accuracy    <       0.00000017 Ry

     iteration #  7     ecut=    40.00 Ry     beta= 0.70
     Davidson diagonalization with overlap
     ethr =  3.22E-10,  avg # of iterations =  2.7

     total cpu time spent up to now is     3032.9 secs

     total energy              =    -446.76648700 Ry
     Harris-Foulkes estimate   =    -446.76648704 Ry
     estimated scf accuracy    <       0.00000006 Ry

     iteration #  8     ecut=    40.00 Ry     beta= 0.70
     Davidson diagonalization with overlap
     ethr =  1.22E-10,  avg # of iterations =  2.0

     total cpu time spent up to now is     3080.7 secs

     total energy              =    -446.76648701 Ry
     Harris-Foulkes estimate   =    -446.76648702 Ry
     estimated scf accuracy    <       0.00000002 Ry

     iteration #  9     ecut=    40.00 Ry     beta= 0.70
     Davidson diagonalization with overlap
     ethr =  3.86E-11,  avg # of iterations =  2.0

     total cpu time spent up to now is     3120.5 secs

     total energy              =    -446.76648701 Ry
     Harris-Foulkes estimate   =    -446.76648701 Ry
     estimated scf accuracy    <          5.0E-09 Ry

     iteration # 10     ecut=    40.00 Ry     beta= 0.70
     Davidson diagonalization with overlap
     ethr =  9.56E-12,  avg # of iterations =  2.0

     total cpu time spent up to now is     3171.7 secs

     total energy              =    -446.76648701 Ry
     Harris-Foulkes estimate   =    -446.76648701 Ry
     estimated scf accuracy    <          3.9E-11 Ry

     iteration # 11     ecut=    40.00 Ry     beta= 0.70
     Davidson diagonalization with overlap
     ethr =  1.00E-13,  avg # of iterations =  2.1

     total cpu time spent up to now is     3223.1 secs

     total energy              =    -446.76648701 Ry
     Harris-Foulkes estimate   =    -446.76648701 Ry
     estimated scf accuracy    <          2.5E-12 Ry

     iteration # 12     ecut=    40.00 Ry     beta= 0.70
     Davidson diagonalization with overlap
     ethr =  1.00E-13,  avg # of iterations =  1.0

     total cpu time spent up to now is     3259.1 secs

     total energy              =    -446.76648701 Ry
     Harris-Foulkes estimate   =    -446.76648701 Ry
     estimated scf accuracy    <          1.0E-12 Ry

     iteration # 13     ecut=    40.00 Ry     beta= 0.70
     Davidson diagonalization with overlap
     ethr =  1.00E-13,  avg # of iterations =  1.0

     total cpu time spent up to now is     3295.0 secs

     End of self-consistent calculation

     Number of k-points >= 100: set verbosity='high' to print the bands.

     highest occupied level (ev):    13.9604

!    total energy              =    -446.76648701 Ry
     Harris-Foulkes estimate   =    -446.76648701 Ry
     estimated scf accuracy    <          6.0E-14 Ry

     The total energy is the sum of the following terms:

     one-electron contribution =     -75.88878288 Ry
     hartree contribution      =      86.96209102 Ry
     xc contribution           =    -123.47222568 Ry
     ewald contribution        =    -334.36756947 Ry

     convergence has been achieved in  13 iterations

     Forces acting on atoms (cartesian axes, Ry/au):

     atom    1 type  1   force =    -0.00070907   -0.00070907    0.00000000
     atom    2 type  1   force =    -0.00014195   -0.00014195    0.00000000
     atom    3 type  2   force =    -0.00107548    0.00110647    0.00000000
     atom    4 type  2   force =     0.00110647   -0.00107548    0.00000000
     atom    5 type  2   force =    -0.00070323   -0.00070323    0.00000000
     atom    6 type  2   force =     0.00152327    0.00152327    0.00000000

     Total force =     0.003382     Total SCF correction =     0.000000


     Computing stress (Cartesian axis) and pressure

          total   stress  (Ry/bohr**3)                   (kbar)     P=   15.48
   0.00008698   0.00000121   0.00000000         12.80      0.18      0.00
   0.00000121   0.00008698   0.00000000          0.18     12.80      0.00
   0.00000000   0.00000000   0.00014171          0.00      0.00     20.85


     number of scf cycles    =   5
     number of bfgs steps    =   4

     enthalpy old            =    -446.7630737627 Ry
     enthalpy new            =    -446.7664870108 Ry

     CASE: enthalpy_new < enthalpy_old

     new trust radius        =       0.0030462711 bohr
     new conv_thr            =            1.0E-12 Ry

     new unit-cell volume =    378.82679 a.u.^3 (    56.13634 Ang^3 )
     density =      8.91603 g/cm^3

CELL_PARAMETERS (alat=  9.11000000)
   0.901506193   0.000000000   0.000000000
   0.000000000   0.901506193   0.000000000
   0.000000000   0.000000000   0.616521362

ATOMIC_POSITIONS (crystal)
Sn      -0.000251377  -0.000251377   0.000000000
Sn       0.499791037   0.499791037   0.500000000
O        0.803017190   0.195939954   0.500000000
O        0.195939954   0.803017190   0.500000000
O        0.303288584   0.303288584   0.000000000
O        0.696214612   0.696214612   0.000000000



     Writing output data file SnO2.save
     NEW-OLD atomic charge density approx. for the potential

     Check: negative/imaginary core charge=   -0.000215    0.000000
     extrapolated charge   52.07771, renormalised to   52.00000

     total cpu time spent up to now is     3312.9 secs

     Self-consistent Calculation

     iteration #  1     ecut=    40.00 Ry     beta= 0.70
     Davidson diagonalization with overlap
     ethr =  1.00E-06,  avg # of iterations =  2.9

     total cpu time spent up to now is     3366.6 secs

     total energy              =    -446.76627132 Ry
     Harris-Foulkes estimate   =    -446.64117475 Ry
     estimated scf accuracy    <       0.00015304 Ry

     iteration #  2     ecut=    40.00 Ry     beta= 0.70
     Davidson diagonalization with overlap
     ethr =  2.94E-07,  avg # of iterations =  3.4

     total cpu time spent up to now is     3430.7 secs

     total energy              =    -446.76651696 Ry
     Harris-Foulkes estimate   =    -446.76662129 Ry
     estimated scf accuracy    <       0.00026340 Ry

     iteration #  3     ecut=    40.00 Ry     beta= 0.70
     Davidson diagonalization with overlap
     ethr =  2.94E-07,  avg # of iterations =  2.0

     total cpu time spent up to now is     3474.7 secs

     total energy              =    -446.76652603 Ry
     Harris-Foulkes estimate   =    -446.76653722 Ry
     estimated scf accuracy    <       0.00003946 Ry

     iteration #  4     ecut=    40.00 Ry     beta= 0.70
     Davidson diagonalization with overlap
     ethr =  7.59E-08,  avg # of iterations =  1.0

     total cpu time spent up to now is     3510.3 secs

     total energy              =    -446.76651813 Ry
     Harris-Foulkes estimate   =    -446.76652717 Ry
     estimated scf accuracy    <       0.00001838 Ry

     iteration #  5     ecut=    40.00 Ry     beta= 0.70
     Davidson diagonalization with overlap
     ethr =  3.54E-08,  avg # of iterations =  2.0

     total cpu time spent up to now is     3554.7 secs

     total energy              =    -446.76652020 Ry
     Harris-Foulkes estimate   =    -446.76652066 Ry
     estimated scf accuracy    <       0.00000066 Ry

     iteration #  6     ecut=    40.00 Ry     beta= 0.70
     Davidson diagonalization with overlap
     ethr =  1.27E-09,  avg # of iterations =  2.2

     total cpu time spent up to now is     3605.6 secs

     total energy              =    -446.76652040 Ry
     Harris-Foulkes estimate   =    -446.76652041 Ry
     estimated scf accuracy    <       0.00000003 Ry

     iteration #  7     ecut=    40.00 Ry     beta= 0.70
     Davidson diagonalization with overlap
     ethr =  4.82E-11,  avg # of iterations =  2.0

     total cpu time spent up to now is     3656.5 secs

     total energy              =    -446.76652040 Ry
     Harris-Foulkes estimate   =    -446.76652041 Ry
     estimated scf accuracy    <          1.1E-09 Ry

     iteration #  8     ecut=    40.00 Ry     beta= 0.70
     Davidson diagonalization with overlap
     ethr =  2.17E-12,  avg # of iterations =  3.0

     total cpu time spent up to now is     3711.7 secs

     total energy              =    -446.76652040 Ry
     Harris-Foulkes estimate   =    -446.76652041 Ry
     estimated scf accuracy    <          2.2E-09 Ry

     iteration #  9     ecut=    40.00 Ry     beta= 0.70
     Davidson diagonalization with overlap
     ethr =  2.17E-12,  avg # of iterations =  2.0

     total cpu time spent up to now is     3756.1 secs

     total energy              =    -446.76652040 Ry
     Harris-Foulkes estimate   =    -446.76652040 Ry
     estimated scf accuracy    <          3.8E-10 Ry

     iteration # 10     ecut=    40.00 Ry     beta= 0.70
     Davidson diagonalization with overlap
     ethr =  7.37E-13,  avg # of iterations =  2.0

     total cpu time spent up to now is     3804.1 secs

     total energy              =    -446.76652040 Ry
     Harris-Foulkes estimate   =    -446.76652040 Ry
     estimated scf accuracy    <          1.1E-11 Ry

     iteration # 11     ecut=    40.00 Ry     beta= 0.70
     Davidson diagonalization with overlap
     ethr =  1.00E-13,  avg # of iterations =  1.0

     total cpu time spent up to now is     3840.1 secs

     End of self-consistent calculation

     Number of k-points >= 100: set verbosity='high' to print the bands.

     highest occupied level (ev):    13.9325

!    total energy              =    -446.76652040 Ry
     Harris-Foulkes estimate   =    -446.76652040 Ry
     estimated scf accuracy    <          2.7E-13 Ry

     The total energy is the sum of the following terms:

     one-electron contribution =     -76.09009804 Ry
     hartree contribution      =      87.00375798 Ry
     xc contribution           =    -123.46093909 Ry
     ewald contribution        =    -334.21924126 Ry

     convergence has been achieved in  11 iterations

     Forces acting on atoms (cartesian axes, Ry/au):

     atom    1 type  1   force =     0.00031056    0.00031056    0.00000000
     atom    2 type  1   force =     0.00003846    0.00003846    0.00000000
     atom    3 type  2   force =     0.00004496    0.00014525    0.00000000
     atom    4 type  2   force =     0.00014525    0.00004496    0.00000000
     atom    5 type  2   force =    -0.00031341   -0.00031341    0.00000000
     atom    6 type  2   force =    -0.00022582   -0.00022582    0.00000000

     Total force =     0.000735     Total SCF correction =     0.000002


     Computing stress (Cartesian axis) and pressure

          total   stress  (Ry/bohr**3)                   (kbar)     P=   -0.74
  -0.00000087   0.00000131   0.00000000         -0.13      0.19      0.00
   0.00000131  -0.00000087   0.00000000          0.19     -0.13      0.00
   0.00000000   0.00000000  -0.00001339          0.00      0.00     -1.97


     number of scf cycles    =   6
     number of bfgs steps    =   5

     enthalpy old            =    -446.7664870108 Ry
     enthalpy new            =    -446.7665204046 Ry

     CASE: enthalpy_new < enthalpy_old

     new trust radius        =       0.0004377821 bohr
     new conv_thr            =            1.0E-12 Ry

     new unit-cell volume =    378.80922 a.u.^3 (    56.13373 Ang^3 )
     density =      8.91644 g/cm^3

CELL_PARAMETERS (alat=  9.11000000)
   0.901535983   0.000000000   0.000000000
   0.000000000   0.901535983   0.000000000
   0.000000000   0.000000000   0.616452027

ATOMIC_POSITIONS (crystal)
Sn      -0.000223416  -0.000223416   0.000000000
Sn       0.499794415   0.499794415   0.500000000
O        0.803014223   0.195960592   0.500000000
O        0.195960592   0.803014223   0.500000000
O        0.303252875   0.303252875   0.000000000
O        0.696201311   0.696201311   0.000000000



     Writing output data file SnO2.save
     NEW-OLD atomic charge density approx. for the potential

     Check: negative/imaginary core charge=   -0.000215    0.000000
     extrapolated charge   51.99759, renormalised to   52.00000

     total cpu time spent up to now is     3858.0 secs

     Self-consistent Calculation

     iteration #  1     ecut=    40.00 Ry     beta= 0.70
     Davidson diagonalization with overlap
     ethr =  1.00E-06,  avg # of iterations =  2.0

     Threshold (ethr) on eigenvalues was too large:
     Diagonalizing with lowered threshold

     Davidson diagonalization with overlap
     ethr =  4.21E-10,  avg # of iterations =  3.1

     total cpu time spent up to now is     3959.7 secs

     total energy              =    -446.76652059 Ry
     Harris-Foulkes estimate   =    -446.77040994 Ry
     estimated scf accuracy    <       0.00000021 Ry

     iteration #  2     ecut=    40.00 Ry     beta= 0.70
     Davidson diagonalization with overlap
     ethr =  4.11E-10,  avg # of iterations =  3.2

     total cpu time spent up to now is     4019.5 secs

     total energy              =    -446.76652083 Ry
     Harris-Foulkes estimate   =    -446.76652095 Ry
     estimated scf accuracy    <       0.00000028 Ry

     iteration #  3     ecut=    40.00 Ry     beta= 0.70
     Davidson diagonalization with overlap
     ethr =  4.11E-10,  avg # of iterations =  2.0

     total cpu time spent up to now is     4063.0 secs

     total energy              =    -446.76652085 Ry
     Harris-Foulkes estimate   =    -446.76652086 Ry
     estimated scf accuracy    <       0.00000003 Ry

     iteration #  4     ecut=    40.00 Ry     beta= 0.70
     Davidson diagonalization with overlap
     ethr =  6.32E-11,  avg # of iterations =  2.0

     total cpu time spent up to now is     4103.6 secs

     total energy              =    -446.76652084 Ry
     Harris-Foulkes estimate   =    -446.76652085 Ry
     estimated scf accuracy    <          7.4E-09 Ry

     iteration #  5     ecut=    40.00 Ry     beta= 0.70
     Davidson diagonalization with overlap
     ethr =  1.41E-11,  avg # of iterations =  2.0

     total cpu time spent up to now is     4151.2 secs

     total energy              =    -446.76652085 Ry
     Harris-Foulkes estimate   =    -446.76652085 Ry
     estimated scf accuracy    <          1.6E-10 Ry

     iteration #  6     ecut=    40.00 Ry     beta= 0.70
     Davidson diagonalization with overlap
     ethr =  3.06E-13,  avg # of iterations =  2.0

     total cpu time spent up to now is     4199.8 secs

     total energy              =    -446.76652085 Ry
     Harris-Foulkes estimate   =    -446.76652085 Ry
     estimated scf accuracy    <          2.3E-11 Ry

     iteration #  7     ecut=    40.00 Ry     beta= 0.70
     Davidson diagonalization with overlap
     ethr =  1.00E-13,  avg # of iterations =  2.0

     total cpu time spent up to now is     4245.0 secs

     total energy              =    -446.76652085 Ry
     Harris-Foulkes estimate   =    -446.76652085 Ry
     estimated scf accuracy    <          5.2E-12 Ry

     iteration #  8     ecut=    40.00 Ry     beta= 0.70
     Davidson diagonalization with overlap
     ethr =  1.00E-13,  avg # of iterations =  1.0

     total cpu time spent up to now is     4280.8 secs

     End of self-consistent calculation

     Number of k-points >= 100: set verbosity='high' to print the bands.

     highest occupied level (ev):    13.9335

!    total energy              =    -446.76652085 Ry
     Harris-Foulkes estimate   =    -446.76652085 Ry
     estimated scf accuracy    <          1.7E-13 Ry

     The total energy is the sum of the following terms:

     one-electron contribution =     -76.08897714 Ry
     hartree contribution      =      87.00478187 Ry
     xc contribution           =    -123.46138043 Ry
     ewald contribution        =    -334.22094516 Ry

     convergence has been achieved in   8 iterations

     Forces acting on atoms (cartesian axes, Ry/au):

     atom    1 type  1   force =    -0.00022624   -0.00022624    0.00000000
     atom    2 type  1   force =    -0.00008725   -0.00008725    0.00000000
     atom    3 type  2   force =    -0.00000267    0.00009687    0.00000000
     atom    4 type  2   force =     0.00009687   -0.00000267    0.00000000
     atom    5 type  2   force =     0.00005816    0.00005816    0.00000000
     atom    6 type  2   force =     0.00016113    0.00016113    0.00000000

     Total force =     0.000442     Total SCF correction =     0.000000


     Computing stress (Cartesian axis) and pressure

          total   stress  (Ry/bohr**3)                   (kbar)     P=   -0.13
  -0.00000050   0.00000129  -0.00000000         -0.07      0.19     -0.00
   0.00000129  -0.00000050   0.00000000          0.19     -0.07      0.00
   0.00000000   0.00000000  -0.00000159          0.00      0.00     -0.23


     number of scf cycles    =   7
     number of bfgs steps    =   6

     enthalpy old            =    -446.7665204046 Ry
     enthalpy new            =    -446.7665208461 Ry

     CASE: enthalpy_new < enthalpy_old

     new trust radius        =       0.0001925113 bohr
     new conv_thr            =            1.0E-12 Ry

     new unit-cell volume =    378.80156 a.u.^3 (    56.13260 Ang^3 )
     density =      8.91662 g/cm^3

CELL_PARAMETERS (alat=  9.11000000)
   0.901541725   0.000000000   0.000000000
   0.000000000   0.901541725   0.000000000
   0.000000000   0.000000000   0.616431698

ATOMIC_POSITIONS (crystal)
Sn      -0.000239990  -0.000239990   0.000000000
Sn       0.499786987   0.499786987   0.500000000
O        0.803013404   0.195972395   0.500000000
O        0.195972395   0.803013404   0.500000000
O        0.303253006   0.303253006   0.000000000
O        0.696214198   0.696214198   0.000000000



     Writing output data file SnO2.save
     NEW-OLD atomic charge density approx. for the potential

     Check: negative/imaginary core charge=   -0.000215    0.000000
     extrapolated charge   51.99895, renormalised to   52.00000

     total cpu time spent up to now is     4298.8 secs

     Self-consistent Calculation

     iteration #  1     ecut=    40.00 Ry     beta= 0.70
     Davidson diagonalization with overlap
     ethr =  1.00E-06,  avg # of iterations =  1.8

     Threshold (ethr) on eigenvalues was too large:
     Diagonalizing with lowered threshold

     Davidson diagonalization with overlap
     ethr =  3.39E-10,  avg # of iterations =  3.0

     total cpu time spent up to now is     4398.8 secs

     total energy              =    -446.76652087 Ry
     Harris-Foulkes estimate   =    -446.76821799 Ry
     estimated scf accuracy    <       0.00000004 Ry

     iteration #  2     ecut=    40.00 Ry     beta= 0.70
     Davidson diagonalization with overlap
     ethr =  7.09E-11,  avg # of iterations =  3.4

     total cpu time spent up to now is     4459.4 secs

     total energy              =    -446.76652091 Ry
     Harris-Foulkes estimate   =    -446.76652093 Ry
     estimated scf accuracy    <       0.00000005 Ry

     iteration #  3     ecut=    40.00 Ry     beta= 0.70
     Davidson diagonalization with overlap
     ethr =  7.09E-11,  avg # of iterations =  2.0

     total cpu time spent up to now is     4502.9 secs

     total energy              =    -446.76652092 Ry
     Harris-Foulkes estimate   =    -446.76652092 Ry
     estimated scf accuracy    <          6.5E-09 Ry

     iteration #  4     ecut=    40.00 Ry     beta= 0.70
     Davidson diagonalization with overlap
     ethr =  1.24E-11,  avg # of iterations =  2.0

     total cpu time spent up to now is     4543.1 secs

     total energy              =    -446.76652092 Ry
     Harris-Foulkes estimate   =    -446.76652092 Ry
     estimated scf accuracy    <          1.4E-09 Ry

     iteration #  5     ecut=    40.00 Ry     beta= 0.70
     Davidson diagonalization with overlap
     ethr =  2.76E-12,  avg # of iterations =  2.0

     total cpu time spent up to now is     4590.8 secs

     total energy              =    -446.76652092 Ry
     Harris-Foulkes estimate   =    -446.76652092 Ry
     estimated scf accuracy    <          5.9E-11 Ry

     iteration #  6     ecut=    40.00 Ry     beta= 0.70
     Davidson diagonalization with overlap
     ethr =  1.13E-13,  avg # of iterations =  2.0

     total cpu time spent up to now is     4636.9 secs

     total energy              =    -446.76652092 Ry
     Harris-Foulkes estimate   =    -446.76652092 Ry
     estimated scf accuracy    <          1.1E-12 Ry

     iteration #  7     ecut=    40.00 Ry     beta= 0.70
     Davidson diagonalization with overlap
     ethr =  1.00E-13,  avg # of iterations =  1.0

     total cpu time spent up to now is     4672.7 secs

     End of self-consistent calculation

     Number of k-points >= 100: set verbosity='high' to print the bands.

     highest occupied level (ev):    13.9339

!    total energy              =    -446.76652092 Ry
     Harris-Foulkes estimate   =    -446.76652092 Ry
     estimated scf accuracy    <          8.4E-13 Ry

     The total energy is the sum of the following terms:

     one-electron contribution =     -76.08692556 Ry
     hartree contribution      =      87.00447041 Ry
     xc contribution           =    -123.46154512 Ry
     ewald contribution        =    -334.22252065 Ry

     convergence has been achieved in   7 iterations

     Forces acting on atoms (cartesian axes, Ry/au):

     atom    1 type  1   force =    -0.00000241   -0.00000241    0.00000000
     atom    2 type  1   force =    -0.00003622   -0.00003622    0.00000000
     atom    3 type  2   force =     0.00004189    0.00008482    0.00000000
     atom    4 type  2   force =     0.00008482    0.00004189    0.00000000
     atom    5 type  2   force =    -0.00006646   -0.00006646    0.00000000
     atom    6 type  2   force =    -0.00002162   -0.00002162    0.00000000

     Total force =     0.000174     Total SCF correction =     0.000000


     Computing stress (Cartesian axis) and pressure

          total   stress  (Ry/bohr**3)                   (kbar)     P=    0.11
   0.00000028   0.00000129   0.00000000          0.04      0.19      0.00
   0.00000129   0.00000028   0.00000000          0.19      0.04      0.00
   0.00000000   0.00000000   0.00000174          0.00      0.00      0.26


     number of scf cycles    =   8
     number of bfgs steps    =   7

     enthalpy old            =    -446.7665208461 Ry
     enthalpy new            =    -446.7665209154 Ry

     CASE: enthalpy_new < enthalpy_old

     small trust_radius: resetting bfgs history

     new trust radius        =       0.0001000000 bohr
     new conv_thr            =            1.0E-12 Ry

     new unit-cell volume =    378.81440 a.u.^3 (    56.13450 Ang^3 )
     density =      8.91632 g/cm^3

CELL_PARAMETERS (alat=  9.11000000)
   0.901545421   0.000000000   0.000000000
   0.000000000   0.901545421   0.000000000
   0.000000000   0.000000000   0.616447534

ATOMIC_POSITIONS (crystal)
Sn      -0.000240164  -0.000240164   0.000000000
Sn       0.499784376   0.499784376   0.500000000
O        0.803016424   0.195978510   0.500000000
O        0.195978510   0.803016424   0.500000000
O        0.303248215   0.303248215   0.000000000
O        0.696212640   0.696212640   0.000000000



     Writing output data file SnO2.save
     NEW-OLD atomic charge density approx. for the potential

     Check: negative/imaginary core charge=   -0.000215    0.000000
     extrapolated charge   52.00176, renormalised to   52.00000

     total cpu time spent up to now is     4690.7 secs

     Self-consistent Calculation

     iteration #  1     ecut=    40.00 Ry     beta= 0.70
     Davidson diagonalization with overlap
     ethr =  1.00E-06,  avg # of iterations =  1.0

     Threshold (ethr) on eigenvalues was too large:
     Diagonalizing with lowered threshold

     Davidson diagonalization with overlap
     ethr =  1.64E-10,  avg # of iterations =  3.0

     total cpu time spent up to now is     4781.4 secs

     total energy              =    -446.76652079 Ry
     Harris-Foulkes estimate   =    -446.76367926 Ry
     estimated scf accuracy    <       0.00000008 Ry

     iteration #  2     ecut=    40.00 Ry     beta= 0.70
     Davidson diagonalization with overlap
     ethr =  1.61E-10,  avg # of iterations =  3.7

     total cpu time spent up to now is     4845.0 secs

     total energy              =    -446.76652092 Ry
     Harris-Foulkes estimate   =    -446.76652098 Ry
     estimated scf accuracy    <       0.00000014 Ry

     iteration #  3     ecut=    40.00 Ry     beta= 0.70
     Davidson diagonalization with overlap
     ethr =  1.61E-10,  avg # of iterations =  2.0

     total cpu time spent up to now is     4889.1 secs

     total energy              =    -446.76652093 Ry
     Harris-Foulkes estimate   =    -446.76652093 Ry
     estimated scf accuracy    <       0.00000002 Ry

     iteration #  4     ecut=    40.00 Ry     beta= 0.70
     Davidson diagonalization with overlap
     ethr =  4.01E-11,  avg # of iterations =  1.0

     total cpu time spent up to now is     4924.7 secs

     total energy              =    -446.76652092 Ry
     Harris-Foulkes estimate   =    -446.76652093 Ry
     estimated scf accuracy    <          9.3E-09 Ry

     iteration #  5     ecut=    40.00 Ry     beta= 0.70
     Davidson diagonalization with overlap
     ethr =  1.78E-11,  avg # of iterations =  2.0

     total cpu time spent up to now is     4975.3 secs

     total energy              =    -446.76652092 Ry
     Harris-Foulkes estimate   =    -446.76652092 Ry
     estimated scf accuracy    <          4.7E-11 Ry

     iteration #  6     ecut=    40.00 Ry     beta= 0.70
     Davidson diagonalization with overlap
     ethr =  1.00E-13,  avg # of iterations =  2.2

     total cpu time spent up to now is     5026.0 secs

     total energy              =    -446.76652092 Ry
     Harris-Foulkes estimate   =    -446.76652092 Ry
     estimated scf accuracy    <          6.5E-12 Ry

     iteration #  7     ecut=    40.00 Ry     beta= 0.70
     Davidson diagonalization with overlap
     ethr =  1.00E-13,  avg # of iterations =  1.1

     total cpu time spent up to now is     5062.0 secs

     total energy              =    -446.76652092 Ry
     Harris-Foulkes estimate   =    -446.76652092 Ry
     estimated scf accuracy    <          1.1E-12 Ry

     iteration #  8     ecut=    40.00 Ry     beta= 0.70
     Davidson diagonalization with overlap
     ethr =  1.00E-13,  avg # of iterations =  1.0

     total cpu time spent up to now is     5097.8 secs

     End of self-consistent calculation

     Number of k-points >= 100: set verbosity='high' to print the bands.

     highest occupied level (ev):    13.9333

!    total energy              =    -446.76652092 Ry
     Harris-Foulkes estimate   =    -446.76652092 Ry
     estimated scf accuracy    <          1.6E-13 Ry

     The total energy is the sum of the following terms:

     one-electron contribution =     -76.09080887 Ry
     hartree contribution      =      87.00509517 Ry
     xc contribution           =    -123.46127959 Ry
     ewald contribution        =    -334.21952763 Ry

     convergence has been achieved in   8 iterations

     Forces acting on atoms (cartesian axes, Ry/au):

     atom    1 type  1   force =    -0.00003967   -0.00003967    0.00000000
     atom    2 type  1   force =    -0.00004263   -0.00004263    0.00000000
     atom    3 type  2   force =     0.00007065    0.00004703    0.00000000
     atom    4 type  2   force =     0.00004703    0.00007065    0.00000000
     atom    5 type  2   force =    -0.00000610   -0.00000610    0.00000000
     atom    6 type  2   force =    -0.00002928   -0.00002928    0.00000000

     Total force =     0.000152     Total SCF correction =     0.000001


     Computing stress (Cartesian axis) and pressure

          total   stress  (Ry/bohr**3)                   (kbar)     P=   -0.27
  -0.00000142   0.00000129   0.00000000         -0.21      0.19      0.00
   0.00000129  -0.00000142   0.00000000          0.19     -0.21      0.00
   0.00000000   0.00000000  -0.00000258          0.00      0.00     -0.38


     number of scf cycles    =   9
     number of bfgs steps    =   8

     enthalpy old            =    -446.7665209154 Ry
     enthalpy new            =    -446.7665209242 Ry

     CASE: enthalpy_new < enthalpy_old

     new trust radius        =       0.0001396136 bohr
     new conv_thr            =            8.8E-13 Ry

     new unit-cell volume =    378.80052 a.u.^3 (    56.13245 Ang^3 )
     density =      8.91664 g/cm^3

CELL_PARAMETERS (alat=  9.11000000)
   0.901529998   0.000000000   0.000000000
   0.000000000   0.901529998   0.000000000
   0.000000000   0.000000000   0.616446046

ATOMIC_POSITIONS (crystal)
Sn      -0.000243639  -0.000243639   0.000000000
Sn       0.499776831   0.499776831   0.500000000
O        0.803026873   0.195991918   0.500000000
O        0.195991918   0.803026873   0.500000000
O        0.303240191   0.303240191   0.000000000
O        0.696207826   0.696207826   0.000000000



     Writing output data file SnO2.save
     NEW-OLD atomic charge density approx. for the potential

     Check: negative/imaginary core charge=   -0.000215    0.000000
     extrapolated charge   51.99810, renormalised to   52.00000

     total cpu time spent up to now is     5116.1 secs

     Self-consistent Calculation

     iteration #  1     ecut=    40.00 Ry     beta= 0.70
     Davidson diagonalization with overlap
     ethr =  1.00E-06,  avg # of iterations =  1.0

     Threshold (ethr) on eigenvalues was too large:
     Diagonalizing with lowered threshold

     Davidson diagonalization with overlap
     ethr =  3.01E-10,  avg # of iterations =  3.0

     total cpu time spent up to now is     5213.1 secs

     total energy              =    -446.76652080 Ry
     Harris-Foulkes estimate   =    -446.76959228 Ry
     estimated scf accuracy    <       0.00000010 Ry

     iteration #  2     ecut=    40.00 Ry     beta= 0.70
     Davidson diagonalization with overlap
     ethr =  1.91E-10,  avg # of iterations =  3.7

     total cpu time spent up to now is     5276.0 secs

     total energy              =    -446.76652095 Ry
     Harris-Foulkes estimate   =    -446.76652102 Ry
     estimated scf accuracy    <       0.00000016 Ry

     iteration #  3     ecut=    40.00 Ry     beta= 0.70
     Davidson diagonalization with overlap
     ethr =  1.91E-10,  avg # of iterations =  2.0

     total cpu time spent up to now is     5319.9 secs

     total energy              =    -446.76652096 Ry
     Harris-Foulkes estimate   =    -446.76652096 Ry
     estimated scf accuracy    <       0.00000002 Ry

     iteration #  4     ecut=    40.00 Ry     beta= 0.70
     Davidson diagonalization with overlap
     ethr =  4.56E-11,  avg # of iterations =  1.0

     total cpu time spent up to now is     5355.5 secs

     total energy              =    -446.76652095 Ry
     Harris-Foulkes estimate   =    -446.76652096 Ry
     estimated scf accuracy    <          8.9E-09 Ry

     iteration #  5     ecut=    40.00 Ry     beta= 0.70
     Davidson diagonalization with overlap
     ethr =  1.72E-11,  avg # of iterations =  2.0

     total cpu time spent up to now is     5406.5 secs

     total energy              =    -446.76652095 Ry
     Harris-Foulkes estimate   =    -446.76652095 Ry
     estimated scf accuracy    <          8.3E-11 Ry

     iteration #  6     ecut=    40.00 Ry     beta= 0.70
     Davidson diagonalization with overlap
     ethr =  1.59E-13,  avg # of iterations =  2.0

     total cpu time spent up to now is     5453.4 secs

     total energy              =    -446.76652095 Ry
     Harris-Foulkes estimate   =    -446.76652095 Ry
     estimated scf accuracy    <          1.7E-11 Ry

     iteration #  7     ecut=    40.00 Ry     beta= 0.70
     Davidson diagonalization with overlap
     ethr =  1.00E-13,  avg # of iterations =  2.0

     total cpu time spent up to now is     5498.6 secs

     total energy              =    -446.76652095 Ry
     Harris-Foulkes estimate   =    -446.76652095 Ry
     estimated scf accuracy    <          5.7E-12 Ry

     iteration #  8     ecut=    40.00 Ry     beta= 0.70
     Davidson diagonalization with overlap
     ethr =  1.00E-13,  avg # of iterations =  1.0

     total cpu time spent up to now is     5534.3 secs

     End of self-consistent calculation

     Number of k-points >= 100: set verbosity='high' to print the bands.

     highest occupied level (ev):    13.9339

!    total energy              =    -446.76652095 Ry
     Harris-Foulkes estimate   =    -446.76652095 Ry
     estimated scf accuracy    <          1.7E-13 Ry

     The total energy is the sum of the following terms:

     one-electron contribution =     -76.08394589 Ry
     hartree contribution      =      87.00312251 Ry
     xc contribution           =    -123.46152199 Ry
     ewald contribution        =    -334.22417557 Ry

     convergence has been achieved in   8 iterations

     Forces acting on atoms (cartesian axes, Ry/au):

     atom    1 type  1   force =    -0.00008678   -0.00008678    0.00000000
     atom    2 type  1   force =    -0.00004959   -0.00004959    0.00000000
     atom    3 type  2   force =     0.00008424    0.00001718    0.00000000
     atom    4 type  2   force =     0.00001718    0.00008424    0.00000000
     atom    5 type  2   force =     0.00005220    0.00005220    0.00000000
     atom    6 type  2   force =    -0.00001725   -0.00001725    0.00000000

     Total force =     0.000202     Total SCF correction =     0.000001


     Computing stress (Cartesian axis) and pressure

          total   stress  (Ry/bohr**3)                   (kbar)     P=    0.10
   0.00000146   0.00000129   0.00000000          0.21      0.19      0.00
   0.00000129   0.00000146   0.00000000          0.19      0.21      0.00
   0.00000000   0.00000000  -0.00000094          0.00      0.00     -0.14


     number of scf cycles    =  10
     number of bfgs steps    =   9

     enthalpy old            =    -446.7665209242 Ry
     enthalpy new            =    -446.7665209540 Ry

     CASE: enthalpy_new < enthalpy_old

     new trust radius        =       0.0003071447 bohr
     new conv_thr            =            1.0E-12 Ry

     new unit-cell volume =    378.79616 a.u.^3 (    56.13180 Ang^3 )
     density =      8.91675 g/cm^3

CELL_PARAMETERS (alat=  9.11000000)
   0.901534592   0.000000000   0.000000000
   0.000000000   0.901534592   0.000000000
   0.000000000   0.000000000   0.616432665

ATOMIC_POSITIONS (crystal)
Sn      -0.000259178  -0.000259178   0.000000000
Sn       0.499758209   0.499758209   0.500000000
O        0.803054307   0.196017334   0.500000000
O        0.196017334   0.803054307   0.500000000
O        0.303231766   0.303231766   0.000000000
O        0.696197562   0.696197562   0.000000000



     Writing output data file SnO2.save
     NEW-OLD atomic charge density approx. for the potential

     Check: negative/imaginary core charge=   -0.000215    0.000000
     extrapolated charge   51.99940, renormalised to   52.00000

     total cpu time spent up to now is     5552.7 secs

     Self-consistent Calculation

     iteration #  1     ecut=    40.00 Ry     beta= 0.70
     Davidson diagonalization with overlap
     ethr =  1.00E-06,  avg # of iterations =  2.0

     Threshold (ethr) on eigenvalues was too large:
     Diagonalizing with lowered threshold

     Davidson diagonalization with overlap
     ethr =  1.54E-10,  avg # of iterations =  3.6

     total cpu time spent up to now is     5658.4 secs

     total energy              =    -446.76652100 Ry
     Harris-Foulkes estimate   =    -446.76748656 Ry
     estimated scf accuracy    <       0.00000005 Ry

     iteration #  2     ecut=    40.00 Ry     beta= 0.70
     Davidson diagonalization with overlap
     ethr =  9.47E-11,  avg # of iterations =  2.8

     total cpu time spent up to now is     5712.0 secs

     total energy              =    -446.76652102 Ry
     Harris-Foulkes estimate   =    -446.76652103 Ry
     estimated scf accuracy    <       0.00000002 Ry

     iteration #  3     ecut=    40.00 Ry     beta= 0.70
     Davidson diagonalization with overlap
     ethr =  3.85E-11,  avg # of iterations =  2.0

     total cpu time spent up to now is     5758.2 secs

     total energy              =    -446.76652103 Ry
     Harris-Foulkes estimate   =    -446.76652103 Ry
     estimated scf accuracy    <          8.4E-10 Ry

     iteration #  4     ecut=    40.00 Ry     beta= 0.70
     Davidson diagonalization with overlap
     ethr =  1.61E-12,  avg # of iterations =  2.3

     total cpu time spent up to now is     5809.4 secs

     total energy              =    -446.76652103 Ry
     Harris-Foulkes estimate   =    -446.76652103 Ry
     estimated scf accuracy    <          2.4E-10 Ry

     iteration #  5     ecut=    40.00 Ry     beta= 0.70
     Davidson diagonalization with overlap
     ethr =  4.70E-13,  avg # of iterations =  3.0

     total cpu time spent up to now is     5859.2 secs

     total energy              =    -446.76652103 Ry
     Harris-Foulkes estimate   =    -446.76652103 Ry
     estimated scf accuracy    <          4.3E-11 Ry

     iteration #  6     ecut=    40.00 Ry     beta= 0.70
     Davidson diagonalization with overlap
     ethr =  1.00E-13,  avg # of iterations =  2.3

     total cpu time spent up to now is     5903.3 secs

     total energy              =    -446.76652103 Ry
     Harris-Foulkes estimate   =    -446.76652103 Ry
     estimated scf accuracy    <          1.7E-12 Ry

     iteration #  7     ecut=    40.00 Ry     beta= 0.70
     Davidson diagonalization with overlap
     ethr =  1.00E-13,  avg # of iterations =  1.0

     total cpu time spent up to now is     5939.2 secs

     End of self-consistent calculation

     Number of k-points >= 100: set verbosity='high' to print the bands.

     highest occupied level (ev):    13.9342

!    total energy              =    -446.76652103 Ry
     Harris-Foulkes estimate   =    -446.76652103 Ry
     estimated scf accuracy    <          4.5E-14 Ry

     The total energy is the sum of the following terms:

     one-electron contribution =     -76.08381058 Ry
     hartree contribution      =      87.00348072 Ry
     xc contribution           =    -123.46163430 Ry
     ewald contribution        =    -334.22455686 Ry

     convergence has been achieved in   7 iterations

     Forces acting on atoms (cartesian axes, Ry/au):

     atom    1 type  1   force =    -0.00006293   -0.00006293    0.00000000
     atom    2 type  1   force =    -0.00003761   -0.00003761    0.00000000
     atom    3 type  2   force =     0.00004625    0.00003967    0.00000000
     atom    4 type  2   force =     0.00003967    0.00004625    0.00000000
     atom    5 type  2   force =     0.00001267    0.00001267    0.00000000
     atom    6 type  2   force =     0.00000196    0.00000196    0.00000000

     Total force =     0.000136     Total SCF correction =     0.000000


     Computing stress (Cartesian axis) and pressure

          total   stress  (Ry/bohr**3)                   (kbar)     P=    0.25
   0.00000158   0.00000129   0.00000000          0.23      0.19      0.00
   0.00000129   0.00000158   0.00000000          0.19      0.23      0.00
   0.00000000   0.00000000   0.00000191          0.00      0.00      0.28


     number of scf cycles    =  11
     number of bfgs steps    =  10

     enthalpy old            =    -446.7665209540 Ry
     enthalpy new            =    -446.7665210263 Ry

     CASE: enthalpy_new < enthalpy_old

     new trust radius        =       0.0004607195 bohr
     new conv_thr            =            1.0E-12 Ry

     new unit-cell volume =    378.79570 a.u.^3 (    56.13173 Ang^3 )
     density =      8.91676 g/cm^3

CELL_PARAMETERS (alat=  9.11000000)
   0.901535886   0.000000000   0.000000000
   0.000000000   0.901535886   0.000000000
   0.000000000   0.000000000   0.616430149

ATOMIC_POSITIONS (crystal)
Sn      -0.000283607  -0.000283607   0.000000000
Sn       0.499730246   0.499730246   0.500000000
O        0.803094044   0.196056929   0.500000000
O        0.196056929   0.803094044   0.500000000
O        0.303218427   0.303218427   0.000000000
O        0.696183961   0.696183961   0.000000000



     Writing output data file SnO2.save
     NEW-OLD atomic charge density approx. for the potential

     Check: negative/imaginary core charge=   -0.000215    0.000000
     extrapolated charge   51.99994, renormalised to   52.00000

     total cpu time spent up to now is     5957.5 secs

     Self-consistent Calculation

     iteration #  1     ecut=    40.00 Ry     beta= 0.70
     Davidson diagonalization with overlap
     ethr =  1.00E-06,  avg # of iterations =  2.0

     Threshold (ethr) on eigenvalues was too large:
     Diagonalizing with lowered threshold

     Davidson diagonalization with overlap
     ethr =  7.05E-11,  avg # of iterations =  3.8

     total cpu time spent up to now is     6066.8 secs

     total energy              =    -446.76652109 Ry
     Harris-Foulkes estimate   =    -446.76662254 Ry
     estimated scf accuracy    <       0.00000009 Ry

     iteration #  2     ecut=    40.00 Ry     beta= 0.70
     Davidson diagonalization with overlap
     ethr =  1.66E-10,  avg # of iterations =  2.0

     total cpu time spent up to now is     6112.3 secs

     total energy              =    -446.76652110 Ry
     Harris-Foulkes estimate   =    -446.76652111 Ry
     estimated scf accuracy    <          7.9E-09 Ry

     iteration #  3     ecut=    40.00 Ry     beta= 0.70
     Davidson diagonalization with overlap
     ethr =  1.51E-11,  avg # of iterations =  2.1

     total cpu time spent up to now is     6161.9 secs

     total energy              =    -446.76652110 Ry
     Harris-Foulkes estimate   =    -446.76652110 Ry
     estimated scf accuracy    <          1.4E-09 Ry

     iteration #  4     ecut=    40.00 Ry     beta= 0.70
     Davidson diagonalization with overlap
     ethr =  2.76E-12,  avg # of iterations =  2.8

     total cpu time spent up to now is     6212.1 secs

     total energy              =    -446.76652110 Ry
     Harris-Foulkes estimate   =    -446.76652110 Ry
     estimated scf accuracy    <          2.7E-10 Ry

     iteration #  5     ecut=    40.00 Ry     beta= 0.70
     Davidson diagonalization with overlap
     ethr =  5.14E-13,  avg # of iterations =  2.8

     total cpu time spent up to now is     6259.4 secs

     total energy              =    -446.76652110 Ry
     Harris-Foulkes estimate   =    -446.76652110 Ry
     estimated scf accuracy    <          2.2E-11 Ry

     iteration #  6     ecut=    40.00 Ry     beta= 0.70
     Davidson diagonalization with overlap
     ethr =  1.00E-13,  avg # of iterations =  2.0

     total cpu time spent up to now is     6300.4 secs

     End of self-consistent calculation

     Number of k-points >= 100: set verbosity='high' to print the bands.

     highest occupied level (ev):    13.9342

!    total energy              =    -446.76652110 Ry
     Harris-Foulkes estimate   =    -446.76652110 Ry
     estimated scf accuracy    <          1.7E-13 Ry

     The total energy is the sum of the following terms:

     one-electron contribution =     -76.08396811 Ry
     hartree contribution      =      87.00360055 Ry
     xc contribution           =    -123.46164950 Ry
     ewald contribution        =    -334.22450404 Ry

     convergence has been achieved in   6 iterations

     Forces acting on atoms (cartesian axes, Ry/au):

     atom    1 type  1   force =    -0.00001117   -0.00001117    0.00000000
     atom    2 type  1   force =    -0.00001937   -0.00001937    0.00000000
     atom    3 type  2   force =     0.00003179    0.00003410    0.00000000
     atom    4 type  2   force =     0.00003410    0.00003179    0.00000000
     atom    5 type  2   force =    -0.00001797   -0.00001797    0.00000000
     atom    6 type  2   force =    -0.00001738   -0.00001738    0.00000000

     Total force =     0.000081     Total SCF correction =     0.000002


     Computing stress (Cartesian axis) and pressure

          total   stress  (Ry/bohr**3)                   (kbar)     P=    0.27
   0.00000154   0.00000129   0.00000000          0.23      0.19      0.00
   0.00000129   0.00000154   0.00000000          0.19      0.23      0.00
   0.00000000   0.00000000   0.00000240          0.00      0.00      0.35


     number of scf cycles    =  12
     number of bfgs steps    =  11

     enthalpy old            =    -446.7665210263 Ry
     enthalpy new            =    -446.7665211041 Ry

     CASE: enthalpy_new < enthalpy_old

     new trust radius        =       0.0006910802 bohr
     new conv_thr            =            1.0E-12 Ry

     new unit-cell volume =    378.80071 a.u.^3 (    56.13247 Ang^3 )
     density =      8.91664 g/cm^3

CELL_PARAMETERS (alat=  9.11000000)
   0.901541531   0.000000000   0.000000000
   0.000000000   0.901541531   0.000000000
   0.000000000   0.000000000   0.616430576

ATOMIC_POSITIONS (crystal)
Sn      -0.000313836  -0.000313836   0.000000000
Sn       0.499689946   0.499689946   0.500000000
O        0.803154328   0.196115633   0.500000000
O        0.196115633   0.803154328   0.500000000
O        0.303194938   0.303194938   0.000000000
O        0.696158989   0.696158989   0.000000000



     Writing output data file SnO2.save
     NEW-OLD atomic charge density approx. for the potential

     Check: negative/imaginary core charge=   -0.000215    0.000000
     extrapolated charge   52.00069, renormalised to   52.00000

     total cpu time spent up to now is     6318.7 secs

     Self-consistent Calculation

     iteration #  1     ecut=    40.00 Ry     beta= 0.70
     Davidson diagonalization with overlap
     ethr =  1.00E-06,  avg # of iterations =  2.0

     Threshold (ethr) on eigenvalues was too large:
     Diagonalizing with lowered threshold

     Davidson diagonalization with overlap
     ethr =  2.96E-10,  avg # of iterations =  3.2

     total cpu time spent up to now is     6424.5 secs

     total energy              =    -446.76652111 Ry
     Harris-Foulkes estimate   =    -446.76541316 Ry
     estimated scf accuracy    <       0.00000021 Ry

     iteration #  2     ecut=    40.00 Ry     beta= 0.70
     Davidson diagonalization with overlap
     ethr =  4.11E-10,  avg # of iterations =  2.0

     total cpu time spent up to now is     6475.9 secs

     total energy              =    -446.76652116 Ry
     Harris-Foulkes estimate   =    -446.76652118 Ry
     estimated scf accuracy    <       0.00000004 Ry

     iteration #  3     ecut=    40.00 Ry     beta= 0.70
     Davidson diagonalization with overlap
     ethr =  7.58E-11,  avg # of iterations =  2.0

     total cpu time spent up to now is     6525.5 secs

     total energy              =    -446.76652117 Ry
     Harris-Foulkes estimate   =    -446.76652117 Ry
     estimated scf accuracy    <          3.5E-09 Ry

     iteration #  4     ecut=    40.00 Ry     beta= 0.70
     Davidson diagonalization with overlap
     ethr =  6.71E-12,  avg # of iterations =  2.8

     total cpu time spent up to now is     6577.4 secs

     total energy              =    -446.76652117 Ry
     Harris-Foulkes estimate   =    -446.76652117 Ry
     estimated scf accuracy    <          9.2E-10 Ry

     iteration #  5     ecut=    40.00 Ry     beta= 0.70
     Davidson diagonalization with overlap
     ethr =  1.76E-12,  avg # of iterations =  2.9

     total cpu time spent up to now is     6625.2 secs

     total energy              =    -446.76652117 Ry
     Harris-Foulkes estimate   =    -446.76652117 Ry
     estimated scf accuracy    <          1.0E-10 Ry

     iteration #  6     ecut=    40.00 Ry     beta= 0.70
     Davidson diagonalization with overlap
     ethr =  2.01E-13,  avg # of iterations =  2.6

     total cpu time spent up to now is     6670.9 secs

     total energy              =    -446.76652117 Ry
     Harris-Foulkes estimate   =    -446.76652117 Ry
     estimated scf accuracy    <          2.3E-12 Ry

     iteration #  7     ecut=    40.00 Ry     beta= 0.70
     Davidson diagonalization with overlap
     ethr =  1.00E-13,  avg # of iterations =  1.0

     total cpu time spent up to now is     6706.8 secs

     End of self-consistent calculation

     Number of k-points >= 100: set verbosity='high' to print the bands.

     highest occupied level (ev):    13.9339

!    total energy              =    -446.76652117 Ry
     Harris-Foulkes estimate   =    -446.76652117 Ry
     estimated scf accuracy    <          1.9E-13 Ry

     The total energy is the sum of the following terms:

     one-electron contribution =     -76.08651361 Ry
     hartree contribution      =      87.00434647 Ry
     xc contribution           =    -123.46156314 Ry
     ewald contribution        =    -334.22279090 Ry

     convergence has been achieved in   7 iterations

     Forces acting on atoms (cartesian axes, Ry/au):

     atom    1 type  1   force =    -0.00003524   -0.00003524    0.00000000
     atom    2 type  1   force =    -0.00001447   -0.00001447    0.00000000
     atom    3 type  2   force =    -0.00000277    0.00002006    0.00000000
     atom    4 type  2   force =     0.00002006   -0.00000277    0.00000000
     atom    5 type  2   force =     0.00000583    0.00000583    0.00000000
     atom    6 type  2   force =     0.00002658    0.00002658    0.00000000

     Total force =     0.000072     Total SCF correction =     0.000002


     Computing stress (Cartesian axis) and pressure

          total   stress  (Ry/bohr**3)                   (kbar)     P=    0.14
   0.00000048   0.00000129   0.00000000          0.07      0.19      0.00
   0.00000129   0.00000048   0.00000000          0.19      0.07      0.00
   0.00000000   0.00000000   0.00000185          0.00      0.00      0.27


     number of scf cycles    =  13
     number of bfgs steps    =  12

     enthalpy old            =    -446.7665211041 Ry
     enthalpy new            =    -446.7665211725 Ry

     CASE: enthalpy_new < enthalpy_old

     new trust radius        =       0.0004099899 bohr
     new conv_thr            =            1.0E-12 Ry

     new unit-cell volume =    378.80399 a.u.^3 (    56.13296 Ang^3 )
     density =      8.91656 g/cm^3

CELL_PARAMETERS (alat=  9.11000000)
   0.901539179   0.000000000   0.000000000
   0.000000000   0.901539179   0.000000000
   0.000000000   0.000000000   0.616439135

ATOMIC_POSITIONS (crystal)
Sn      -0.000337542  -0.000337542   0.000000000
Sn       0.499664294   0.499664294   0.500000000
O        0.803189304   0.196151251   0.500000000
O        0.196151251   0.803189304   0.500000000
O        0.303184062   0.303184062   0.000000000
O        0.696148632   0.696148632   0.000000000



     Writing output data file SnO2.save
     NEW-OLD atomic charge density approx. for the potential

     Check: negative/imaginary core charge=   -0.000215    0.000000
     extrapolated charge   52.00045, renormalised to   52.00000

     total cpu time spent up to now is     6725.1 secs

     Self-consistent Calculation

     iteration #  1     ecut=    40.00 Ry     beta= 0.70
     Davidson diagonalization with overlap
     ethr =  1.00E-06,  avg # of iterations =  2.0

     Threshold (ethr) on eigenvalues was too large:
     Diagonalizing with lowered threshold

     Davidson diagonalization with overlap
     ethr =  6.55E-11,  avg # of iterations =  3.7

     total cpu time spent up to now is     6834.5 secs

     total energy              =    -446.76652116 Ry
     Harris-Foulkes estimate   =    -446.76579459 Ry
     estimated scf accuracy    <       0.00000007 Ry

     iteration #  2     ecut=    40.00 Ry     beta= 0.70
     Davidson diagonalization with overlap
     ethr =  1.40E-10,  avg # of iterations =  2.0

     total cpu time spent up to now is     6885.9 secs

     total energy              =    -446.76652118 Ry
     Harris-Foulkes estimate   =    -446.76652119 Ry
     estimated scf accuracy    <       0.00000002 Ry

     iteration #  3     ecut=    40.00 Ry     beta= 0.70
     Davidson diagonalization with overlap
     ethr =  2.89E-11,  avg # of iterations =  2.0

     total cpu time spent up to now is     6935.2 secs

     total energy              =    -446.76652118 Ry
     Harris-Foulkes estimate   =    -446.76652118 Ry
     estimated scf accuracy    <          1.1E-09 Ry

     iteration #  4     ecut=    40.00 Ry     beta= 0.70
     Davidson diagonalization with overlap
     ethr =  2.09E-12,  avg # of iterations =  2.7

     total cpu time spent up to now is     6987.4 secs

     total energy              =    -446.76652118 Ry
     Harris-Foulkes estimate   =    -446.76652118 Ry
     estimated scf accuracy    <          3.0E-10 Ry

     iteration #  5     ecut=    40.00 Ry     beta= 0.70
     Davidson diagonalization with overlap
     ethr =  5.70E-13,  avg # of iterations =  3.0

     total cpu time spent up to now is     7035.8 secs

     total energy              =    -446.76652118 Ry
     Harris-Foulkes estimate   =    -446.76652118 Ry
     estimated scf accuracy    <          4.1E-11 Ry

     iteration #  6     ecut=    40.00 Ry     beta= 0.70
     Davidson diagonalization with overlap
     ethr =  1.00E-13,  avg # of iterations =  2.3

     total cpu time spent up to now is     7079.9 secs

     End of self-consistent calculation

     Number of k-points >= 100: set verbosity='high' to print the bands.

     highest occupied level (ev):    13.9338

!    total energy              =    -446.76652118 Ry
     Harris-Foulkes estimate   =    -446.76652118 Ry
     estimated scf accuracy    <          1.0E-12 Ry

     The total energy is the sum of the following terms:

     one-electron contribution =     -76.08690887 Ry
     hartree contribution      =      87.00421860 Ry
     xc contribution           =    -123.46148312 Ry
     ewald contribution        =    -334.22234778 Ry

     convergence has been achieved in   6 iterations

     Forces acting on atoms (cartesian axes, Ry/au):

     atom    1 type  1   force =     0.00004543    0.00004543    0.00000000
     atom    2 type  1   force =     0.00001072    0.00001072    0.00000000
     atom    3 type  2   force =     0.00000716   -0.00000248    0.00000000
     atom    4 type  2   force =    -0.00000248    0.00000716    0.00000000
     atom    5 type  2   force =    -0.00002568   -0.00002568    0.00000000
     atom    6 type  2   force =    -0.00003516   -0.00003516    0.00000000

     Total force =     0.000091     Total SCF correction =     0.000002


     Computing stress (Cartesian axis) and pressure

          total   stress  (Ry/bohr**3)                   (kbar)     P=    0.03
   0.00000028   0.00000128   0.00000000          0.04      0.19      0.00
   0.00000128   0.00000028   0.00000000          0.19      0.04      0.00
   0.00000000   0.00000000   0.00000001          0.00      0.00      0.00


     number of scf cycles    =  14
     number of bfgs steps    =  13

     enthalpy old            =    -446.7665211725 Ry
     enthalpy new            =    -446.7665211843 Ry

     CASE: enthalpy_new < enthalpy_old

     small trust_radius: resetting bfgs history

     new trust radius        =       0.0000642539 bohr
     new conv_thr            =            1.0E-12 Ry

     new unit-cell volume =    378.80933 a.u.^3 (    56.13375 Ang^3 )
     density =      8.91644 g/cm^3

CELL_PARAMETERS (alat=  9.11000000)
   0.901545410   0.000000000   0.000000000
   0.000000000   0.901545410   0.000000000
   0.000000000   0.000000000   0.616439309

ATOMIC_POSITIONS (crystal)
Sn      -0.000332010  -0.000332010   0.000000000
Sn       0.499665599   0.499665599   0.500000000
O        0.803190176   0.196150949   0.500000000
O        0.196150949   0.803190176   0.500000000
O        0.303180935   0.303180935   0.000000000
O        0.696144351   0.696144351   0.000000000



     Writing output data file SnO2.save
     NEW-OLD atomic charge density approx. for the potential

     Check: negative/imaginary core charge=   -0.000215    0.000000
     extrapolated charge   52.00073, renormalised to   52.00000

     total cpu time spent up to now is     7098.2 secs

     Self-consistent Calculation

     iteration #  1     ecut=    40.00 Ry     beta= 0.70
     Davidson diagonalization with overlap
     ethr =  1.00E-06,  avg # of iterations =  1.1

     Threshold (ethr) on eigenvalues was too large:
     Diagonalizing with lowered threshold

     Davidson diagonalization with overlap
     ethr =  6.22E-11,  avg # of iterations =  3.0

     total cpu time spent up to now is     7193.2 secs

     total energy              =    -446.76652116 Ry
     Harris-Foulkes estimate   =    -446.76533832 Ry
     estimated scf accuracy    <       0.00000001 Ry

     iteration #  2     ecut=    40.00 Ry     beta= 0.70
     Davidson diagonalization with overlap
     ethr =  2.72E-11,  avg # of iterations =  3.7

     total cpu time spent up to now is     7257.8 secs

     total energy              =    -446.76652118 Ry
     Harris-Foulkes estimate   =    -446.76652119 Ry
     estimated scf accuracy    <       0.00000002 Ry

     iteration #  3     ecut=    40.00 Ry     beta= 0.70
     Davidson diagonalization with overlap
     ethr =  2.72E-11,  avg # of iterations =  2.0

     total cpu time spent up to now is     7301.9 secs

     total energy              =    -446.76652118 Ry
     Harris-Foulkes estimate   =    -446.76652118 Ry
     estimated scf accuracy    <          3.6E-09 Ry

     iteration #  4     ecut=    40.00 Ry     beta= 0.70
     Davidson diagonalization with overlap
     ethr =  6.91E-12,  avg # of iterations =  1.0

     total cpu time spent up to now is     7337.5 secs

     total energy              =    -446.76652118 Ry
     Harris-Foulkes estimate   =    -446.76652118 Ry
     estimated scf accuracy    <          1.4E-09 Ry

     iteration #  5     ecut=    40.00 Ry     beta= 0.70
     Davidson diagonalization with overlap
     ethr =  2.73E-12,  avg # of iterations =  2.0

     total cpu time spent up to now is     7388.5 secs

     total energy              =    -446.76652118 Ry
     Harris-Foulkes estimate   =    -446.76652118 Ry
     estimated scf accuracy    <          1.3E-11 Ry

     iteration #  6     ecut=    40.00 Ry     beta= 0.70
     Davidson diagonalization with overlap
     ethr =  1.00E-13,  avg # of iterations =  1.3

     total cpu time spent up to now is     7424.9 secs

     total energy              =    -446.76652118 Ry
     Harris-Foulkes estimate   =    -446.76652118 Ry
     estimated scf accuracy    <          2.4E-12 Ry

     iteration #  7     ecut=    40.00 Ry     beta= 0.70
     Davidson diagonalization with overlap
     ethr =  1.00E-13,  avg # of iterations =  1.0

     total cpu time spent up to now is     7460.7 secs

     End of self-consistent calculation

     Number of k-points >= 100: set verbosity='high' to print the bands.

     highest occupied level (ev):    13.9335

!    total energy              =    -446.76652118 Ry
     Harris-Foulkes estimate   =    -446.76652118 Ry
     estimated scf accuracy    <          2.9E-13 Ry

     The total energy is the sum of the following terms:

     one-electron contribution =     -76.08961190 Ry
     hartree contribution      =      87.00501076 Ry
     xc contribution           =    -123.46139253 Ry
     ewald contribution        =    -334.22052750 Ry

     convergence has been achieved in   7 iterations

     Forces acting on atoms (cartesian axes, Ry/au):

     atom    1 type  1   force =    -0.00004783   -0.00004783    0.00000000
     atom    2 type  1   force =    -0.00000915   -0.00000915    0.00000000
     atom    3 type  2   force =    -0.00000994   -0.00000099    0.00000000
     atom    4 type  2   force =    -0.00000099   -0.00000994    0.00000000
     atom    5 type  2   force =     0.00002947    0.00002947    0.00000000
     atom    6 type  2   force =     0.00003843    0.00003843    0.00000000

     Total force =     0.000098     Total SCF correction =     0.000000


     Computing stress (Cartesian axis) and pressure

          total   stress  (Ry/bohr**3)                   (kbar)     P=   -0.11
  -0.00000084   0.00000128   0.00000000         -0.12      0.19      0.00
   0.00000128  -0.00000084   0.00000000          0.19     -0.12      0.00
   0.00000000   0.00000000  -0.00000055          0.00      0.00     -0.08


     number of scf cycles    =  15
     number of bfgs steps    =  14

     enthalpy old            =    -446.7665211843 Ry
     enthalpy new            =    -446.7665211825 Ry

     CASE: enthalpy_new > enthalpy_old

     new trust radius        =       0.0000270902 bohr

     trust_radius < trust_radius_min

     resetting bfgs history

     Message from routine bfgs:
     history already reset at previous step: stopping
     new conv_thr            =            1.0E-12 Ry

     new unit-cell volume =    378.80933 a.u.^3 (    56.13375 Ang^3 )
     density =      8.91644 g/cm^3

CELL_PARAMETERS (alat=  9.11000000)
   0.901545410   0.000000000   0.000000000
   0.000000000   0.901545410   0.000000000
   0.000000000   0.000000000   0.616439309

ATOMIC_POSITIONS (crystal)
Sn      -0.000332010  -0.000332010   0.000000000
Sn       0.499665599   0.499665599   0.500000000
O        0.803190176   0.196150949   0.500000000
O        0.196150949   0.803190176   0.500000000
O        0.303180935   0.303180935   0.000000000
O        0.696144351   0.696144351   0.000000000



     Writing output data file SnO2.save
     NEW-OLD atomic charge density approx. for the potential

     Check: negative/imaginary core charge=   -0.000215    0.000000

     total cpu time spent up to now is     7479.2 secs

     Self-consistent Calculation

     iteration #  1     ecut=    40.00 Ry     beta= 0.70
     Davidson diagonalization with overlap
     ethr =  1.00E-06,  avg # of iterations =  1.0

     Threshold (ethr) on eigenvalues was too large:
     Diagonalizing with lowered threshold

     Davidson diagonalization with overlap

 %%%%%%%%%%%%%%%%%%%%%%%%%%%%%%%%%%%%%%%%%%%%%%%%%%%%%%%%%%%%%%%%%%%%%%%%%%%%%%
     Error in routine c_bands (1):
     too many bands are not converged
 %%%%%%%%%%%%%%%%%%%%%%%%%%%%%%%%%%%%%%%%%%%%%%%%%%%%%%%%%%%%%%%%%%%%%%%%%%%%%%

     stopping ...

 %%%%%%%%%%%%%%%%%%%%%%%%%%%%%%%%%%%%%%%%%%%%%%%%%%%%%%%%%%%%%%%%%%%%%%%%%%%%%%
     Error in routine c_bands (1):
     too many bands are not converged
 %%%%%%%%%%%%%%%%%%%%%%%%%%%%%%%%%%%%%%%%%%%%%%%%%%%%%%%%%%%%%%%%%%%%%%%%%%%%%%

     stopping ...
