
     Program PWSCF v.6.2.2 starts on  9Apr2018 at  0:43:40 

     This program is part of the open-source Quantum ESPRESSO suite
     for quantum simulation of materials; please cite
         "P. Giannozzi et al., J. Phys.:Condens. Matter 21 395502 (2009);
         "P. Giannozzi et al., J. Phys.:Condens. Matter 29 465901 (2017);
          URL http://www.quantum-espresso.org", 
     in publications or presentations arising from this work. More details at
     http://www.quantum-espresso.org/quote

     Parallel version (MPI), running on     2 processors

     MPI processes distributed on     1 nodes
     R & G space division:  proc/nbgrp/npool/nimage =       2
     Reading input from Conv_acell-ecut.in

     Current dimensions of program PWSCF are:
     Max number of different atomic species (ntypx) = 10
     Max number of k-points (npk) =  40000
     Max angular momentum in pseudopotentials (lmaxx) =  3

     Subspace diagonalization in iterative solution of the eigenvalue problem:
     a serial algorithm will be used

 
     Parallelization info
     --------------------
     sticks:   dense  smooth     PW     G-vecs:    dense   smooth      PW
     Min         466     466    146                 7093     7093    1252
     Max         467     467    147                 7094     7094    1253
     Sum         933     933    293                14187    14187    2505
 


     bravais-lattice index     =            6
     lattice parameter (alat)  =       9.1100  a.u.
     unit-cell volume          =     506.5589 (a.u.)^3
     number of atoms/cell      =            6
     number of atomic types    =            2
     number of electrons       =        52.00
     number of Kohn-Sham states=           26
     kinetic-energy cutoff     =      35.0000  Ry
     charge density cutoff     =     140.0000  Ry
     convergence threshold     =      1.0E-12
     mixing beta               =       0.7000
     number of iterations used =            8  plain     mixing
     Exchange-correlation      = PBE ( 1  4  3  4 0 0)
     nstep                     =           50


     celldm(1)=   9.110000  celldm(2)=   0.000000  celldm(3)=   0.670000
     celldm(4)=   0.000000  celldm(5)=   0.000000  celldm(6)=   0.000000

     crystal axes: (cart. coord. in units of alat)
               a(1) = (   1.000000   0.000000   0.000000 )  
               a(2) = (   0.000000   1.000000   0.000000 )  
               a(3) = (   0.000000   0.000000   0.670000 )  

     reciprocal axes: (cart. coord. in units 2 pi/alat)
               b(1) = (  1.000000  0.000000  0.000000 )  
               b(2) = (  0.000000  1.000000  0.000000 )  
               b(3) = (  0.000000  0.000000  1.492537 )  


     PseudoPot. # 1 for Sn read from file:
     ../../Pseudo_potentials/Sn_PBE.upf
     MD5 check sum: 78e6386ae56e929f0568ae8bf606a80c
     Pseudo is Norm-conserving + core correction, Zval = 14.0
     Generated using ONCVPSP code by D. R. Hamann
     Using radial grid of 1628 points,  6 beta functions with: 
                l(1) =   0
                l(2) =   0
                l(3) =   1
                l(4) =   1
                l(5) =   2
                l(6) =   2

     PseudoPot. # 2 for O  read from file:
     ../../Pseudo_potentials/O_PBE.upf
     MD5 check sum: 3e3f909f7470e8921608ab6b1f57bbae
     Pseudo is Norm-conserving + core correction, Zval =  6.0
     Generated using ONCVPSP code by D. R. Hamann
     Using radial grid of  936 points,  5 beta functions with: 
                l(1) =   0
                l(2) =   0
                l(3) =   1
                l(4) =   1
                l(5) =   2

     atomic species   valence    mass     pseudopotential
        Sn            14.00   118.71000     Sn( 1.00)
        O              6.00    15.99900     O ( 1.00)

      4 Sym. Ops. (no inversion) found



   Cartesian axes

     site n.     atom                  positions (alat units)
         1           Sn  tau(   1) = (   0.0000000   0.0000000   0.0000000  )
         2           Sn  tau(   2) = (   0.5000000   0.5000000   0.3350000  )
         3           O   tau(   3) = (   0.8060000   0.1930000   0.3350000  )
         4           O   tau(   4) = (   0.1930000   0.8060000   0.3350000  )
         5           O   tau(   5) = (   0.3060000   0.3060000   0.0000000  )
         6           O   tau(   6) = (   0.6930000   0.6930000   0.0000000  )

     number of k points=   301

     Number of k-points >= 100: set verbosity='high' to print them.

     Dense  grid:    14187 G-vectors     FFT dimensions: (  36,  36,  24)

     Estimated max dynamical RAM per process >     120.30 MB

     Estimated total dynamical RAM >     240.61 MB

     Check: negative/imaginary core charge=   -0.000823    0.000000

     Initial potential from superposition of free atoms
     Check: negative starting charge=   -0.000855

     starting charge   51.99690, renormalised to   52.00000

     negative rho (up, down):  8.547E-04 0.000E+00
     Starting wfc are   34 randomized atomic wfcs

     total cpu time spent up to now is       14.1 secs

     Self-consistent Calculation

     iteration #  1     ecut=    35.00 Ry     beta= 0.70
     Davidson diagonalization with overlap
     ethr =  1.00E-02,  avg # of iterations =  2.0

     negative rho (up, down):  2.449E-04 0.000E+00

     total cpu time spent up to now is       52.2 secs

     total energy              =    -442.64706561 Ry
     Harris-Foulkes estimate   =    -443.53634175 Ry
     estimated scf accuracy    <       1.27729101 Ry

     iteration #  2     ecut=    35.00 Ry     beta= 0.70
     Davidson diagonalization with overlap
     ethr =  2.46E-03,  avg # of iterations =  3.0

     negative rho (up, down):  1.261E-04 0.000E+00

     total cpu time spent up to now is       95.4 secs

     total energy              =    -442.91338402 Ry
     Harris-Foulkes estimate   =    -443.30710056 Ry
     estimated scf accuracy    <       0.71327158 Ry

     iteration #  3     ecut=    35.00 Ry     beta= 0.70
     Davidson diagonalization with overlap
     ethr =  1.37E-03,  avg # of iterations =  3.0

     negative rho (up, down):  1.642E-05 0.000E+00

     total cpu time spent up to now is      133.3 secs

     total energy              =    -443.08804438 Ry
     Harris-Foulkes estimate   =    -443.09590740 Ry
     estimated scf accuracy    <       0.02436661 Ry

     iteration #  4     ecut=    35.00 Ry     beta= 0.70
     Davidson diagonalization with overlap
     ethr =  4.69E-05,  avg # of iterations =  2.0

     total cpu time spent up to now is      168.1 secs

     total energy              =    -443.09150670 Ry
     Harris-Foulkes estimate   =    -443.09154870 Ry
     estimated scf accuracy    <       0.00055557 Ry

     iteration #  5     ecut=    35.00 Ry     beta= 0.70
     Davidson diagonalization with overlap
     ethr =  1.07E-06,  avg # of iterations =  3.2

     total cpu time spent up to now is      205.4 secs

     total energy              =    -443.09189716 Ry
     Harris-Foulkes estimate   =    -443.09190287 Ry
     estimated scf accuracy    <       0.00001530 Ry

     iteration #  6     ecut=    35.00 Ry     beta= 0.70
     Davidson diagonalization with overlap
     ethr =  2.94E-08,  avg # of iterations =  3.3

     total cpu time spent up to now is      248.1 secs

     total energy              =    -443.09216425 Ry
     Harris-Foulkes estimate   =    -443.09216689 Ry
     estimated scf accuracy    <       0.00000686 Ry

     iteration #  7     ecut=    35.00 Ry     beta= 0.70
     Davidson diagonalization with overlap
     ethr =  1.32E-08,  avg # of iterations =  3.1

     total cpu time spent up to now is      284.1 secs

     total energy              =    -443.09216540 Ry
     Harris-Foulkes estimate   =    -443.09216552 Ry
     estimated scf accuracy    <       0.00000051 Ry

     iteration #  8     ecut=    35.00 Ry     beta= 0.70
     Davidson diagonalization with overlap
     ethr =  9.77E-10,  avg # of iterations =  2.3

     total cpu time spent up to now is      318.2 secs

     total energy              =    -443.09216546 Ry
     Harris-Foulkes estimate   =    -443.09216547 Ry
     estimated scf accuracy    <       0.00000005 Ry

     iteration #  9     ecut=    35.00 Ry     beta= 0.70
     Davidson diagonalization with overlap
     ethr =  9.72E-11,  avg # of iterations =  2.3

     total cpu time spent up to now is      354.5 secs

     total energy              =    -443.09216547 Ry
     Harris-Foulkes estimate   =    -443.09216547 Ry
     estimated scf accuracy    <          5.5E-09 Ry

     iteration # 10     ecut=    35.00 Ry     beta= 0.70
     Davidson diagonalization with overlap
     ethr =  1.07E-11,  avg # of iterations =  2.6

     total cpu time spent up to now is      389.1 secs

     total energy              =    -443.09216547 Ry
     Harris-Foulkes estimate   =    -443.09216547 Ry
     estimated scf accuracy    <          1.1E-09 Ry

     iteration # 11     ecut=    35.00 Ry     beta= 0.70
     Davidson diagonalization with overlap
     ethr =  2.20E-12,  avg # of iterations =  2.9

     total cpu time spent up to now is      425.3 secs

     total energy              =    -443.09216547 Ry
     Harris-Foulkes estimate   =    -443.09216547 Ry
     estimated scf accuracy    <          5.0E-11 Ry

     iteration # 12     ecut=    35.00 Ry     beta= 0.70
     Davidson diagonalization with overlap
     ethr =  1.00E-13,  avg # of iterations =  3.0

     total cpu time spent up to now is      462.5 secs

     total energy              =    -443.09216547 Ry
     Harris-Foulkes estimate   =    -443.09216547 Ry
     estimated scf accuracy    <          7.3E-12 Ry

     iteration # 13     ecut=    35.00 Ry     beta= 0.70
     Davidson diagonalization with overlap
     ethr =  1.00E-13,  avg # of iterations =  1.0

     total cpu time spent up to now is      490.1 secs

     End of self-consistent calculation

     Number of k-points >= 100: set verbosity='high' to print the bands.

     highest occupied level (ev):     9.3970

!    total energy              =    -443.09216547 Ry
     Harris-Foulkes estimate   =    -443.09216547 Ry
     estimated scf accuracy    <          4.5E-13 Ry

     The total energy is the sum of the following terms:

     one-electron contribution =    -116.39668713 Ry
     hartree contribution      =      96.35535559 Ry
     xc contribution           =    -120.56949812 Ry
     ewald contribution        =    -302.48133580 Ry

     convergence has been achieved in  13 iterations

     Forces acting on atoms (cartesian axes, Ry/au):

     atom    1 type  1   force =    -0.00217633   -0.00217633    0.00000000
     atom    2 type  1   force =    -0.00235104   -0.00235104    0.00000000
     atom    3 type  2   force =     0.00453915   -0.00431554    0.00000000
     atom    4 type  2   force =    -0.00431554    0.00453915    0.00000000
     atom    5 type  2   force =     0.00659228    0.00659228    0.00000000
     atom    6 type  2   force =    -0.00228852   -0.00228852    0.00000000

     Total force =     0.014013     Total SCF correction =     0.000002


     Computing stress (Cartesian axis) and pressure

          total   stress  (Ry/bohr**3)                   (kbar)     P=-4457.46
  -0.03046913   0.00000014   0.00000000      -4482.16      0.02      0.00
   0.00000014  -0.03046913   0.00000000          0.02  -4482.16      0.00
   0.00000000   0.00000000  -0.02996543          0.00      0.00  -4408.07


     BFGS Geometry Optimization

     number of scf cycles    =   1
     number of bfgs steps    =   0

     enthalpy new            =    -443.0921654678 Ry

     new trust radius        =       0.5000000000 bohr
     new conv_thr            =            1.0E-12 Ry

     new unit-cell volume =    356.54819 a.u.^3 (    52.83499 Ang^3 )
     density =      9.47314 g/cm^3

CELL_PARAMETERS (alat=  9.11000000)
   0.888922769   0.000000000   0.000000000
   0.000000000   0.888922769   0.000000000
   0.000000000   0.000000000   0.596808568

ATOMIC_POSITIONS (crystal)
Sn      -0.000034836  -0.000034836   0.000000000
Sn       0.499962367   0.499962367   0.500000000
O        0.806072658   0.192930922   0.500000000
O        0.192930922   0.806072658   0.500000000
O        0.306105522   0.306105522   0.000000000
O        0.692963368   0.692963368   0.000000000



     Writing output data file SnO2.save
     Check: negative starting charge=   -0.000855
     NEW-OLD atomic charge density approx. for the potential

     Check: negative/imaginary core charge=   -0.000343    0.000000

     negative rho (up, down):  2.161E-01 0.000E+00
     extrapolated charge   30.12332, renormalised to   52.00000

     total cpu time spent up to now is      504.9 secs

     Self-consistent Calculation

     iteration #  1     ecut=    35.00 Ry     beta= 0.70
     Davidson diagonalization with overlap
     ethr =  1.00E-06,  avg # of iterations = 14.1

     total cpu time spent up to now is      631.4 secs

     total energy              =    -430.45716557 Ry
     Harris-Foulkes estimate   =    -477.99133644 Ry
     estimated scf accuracy    <      21.55833848 Ry

     iteration #  2     ecut=    35.00 Ry     beta= 0.70
     Davidson diagonalization with overlap
     ethr =  1.00E-02,  avg # of iterations =  3.6

     total cpu time spent up to now is      681.2 secs

     total energy              =    -444.83132659 Ry
     Harris-Foulkes estimate   =    -449.04208062 Ry
     estimated scf accuracy    <       8.06637122 Ry

     iteration #  3     ecut=    35.00 Ry     beta= 0.70
     Davidson diagonalization with overlap
     ethr =  1.00E-02,  avg # of iterations =  2.1

     total cpu time spent up to now is      717.5 secs

     total energy              =    -445.92505184 Ry
     Harris-Foulkes estimate   =    -446.06553263 Ry
     estimated scf accuracy    <       0.25825433 Ry

     iteration #  4     ecut=    35.00 Ry     beta= 0.70
     Davidson diagonalization with overlap
     ethr =  4.97E-04,  avg # of iterations =  2.2

     total cpu time spent up to now is      755.3 secs

     total energy              =    -445.98122701 Ry
     Harris-Foulkes estimate   =    -446.00139815 Ry
     estimated scf accuracy    <       0.04035459 Ry

     iteration #  5     ecut=    35.00 Ry     beta= 0.70
     Davidson diagonalization with overlap
     ethr =  7.76E-05,  avg # of iterations =  2.0

     total cpu time spent up to now is      792.0 secs

     total energy              =    -445.99094910 Ry
     Harris-Foulkes estimate   =    -445.99094023 Ry
     estimated scf accuracy    <       0.00018093 Ry

     iteration #  6     ecut=    35.00 Ry     beta= 0.70
     Davidson diagonalization with overlap
     ethr =  3.48E-07,  avg # of iterations =  3.2

     total cpu time spent up to now is      837.2 secs

     total energy              =    -445.99907952 Ry
     Harris-Foulkes estimate   =    -445.99913189 Ry
     estimated scf accuracy    <       0.00012802 Ry

     iteration #  7     ecut=    35.00 Ry     beta= 0.70
     Davidson diagonalization with overlap
     ethr =  2.46E-07,  avg # of iterations =  2.0

     total cpu time spent up to now is      870.8 secs

     total energy              =    -445.99908938 Ry
     Harris-Foulkes estimate   =    -445.99909572 Ry
     estimated scf accuracy    <       0.00001529 Ry

     iteration #  8     ecut=    35.00 Ry     beta= 0.70
     Davidson diagonalization with overlap
     ethr =  2.94E-08,  avg # of iterations =  2.0

     total cpu time spent up to now is      905.8 secs

     total energy              =    -445.99909125 Ry
     Harris-Foulkes estimate   =    -445.99909149 Ry
     estimated scf accuracy    <       0.00000086 Ry

     iteration #  9     ecut=    35.00 Ry     beta= 0.70
     Davidson diagonalization with overlap
     ethr =  1.66E-09,  avg # of iterations =  2.1

     total cpu time spent up to now is      945.5 secs

     total energy              =    -445.99909144 Ry
     Harris-Foulkes estimate   =    -445.99909150 Ry
     estimated scf accuracy    <       0.00000012 Ry

     iteration # 10     ecut=    35.00 Ry     beta= 0.70
     Davidson diagonalization with overlap
     ethr =  2.29E-10,  avg # of iterations =  2.0

     total cpu time spent up to now is      983.5 secs

     total energy              =    -445.99909146 Ry
     Harris-Foulkes estimate   =    -445.99909146 Ry
     estimated scf accuracy    <       0.00000001 Ry

     iteration # 11     ecut=    35.00 Ry     beta= 0.70
     Davidson diagonalization with overlap
     ethr =  2.35E-11,  avg # of iterations =  2.3

     total cpu time spent up to now is     1023.7 secs

     total energy              =    -445.99909146 Ry
     Harris-Foulkes estimate   =    -445.99909146 Ry
     estimated scf accuracy    <          2.9E-09 Ry

     iteration # 12     ecut=    35.00 Ry     beta= 0.70
     Davidson diagonalization with overlap
     ethr =  5.56E-12,  avg # of iterations =  2.0

     total cpu time spent up to now is     1058.8 secs

     total energy              =    -445.99909146 Ry
     Harris-Foulkes estimate   =    -445.99909146 Ry
     estimated scf accuracy    <          8.6E-11 Ry

     iteration # 13     ecut=    35.00 Ry     beta= 0.70
     Davidson diagonalization with overlap
     ethr =  1.66E-13,  avg # of iterations =  2.6

     total cpu time spent up to now is     1099.4 secs

     total energy              =    -445.99909146 Ry
     Harris-Foulkes estimate   =    -445.99909146 Ry
     estimated scf accuracy    <          1.8E-12 Ry

     iteration # 14     ecut=    35.00 Ry     beta= 0.70
     Davidson diagonalization with overlap
     ethr =  1.00E-13,  avg # of iterations =  1.0

     total cpu time spent up to now is     1127.2 secs

     End of self-consistent calculation

     Number of k-points >= 100: set verbosity='high' to print the bands.

     highest occupied level (ev):    15.1951

!    total energy              =    -445.99909146 Ry
     Harris-Foulkes estimate   =    -445.99909146 Ry
     estimated scf accuracy    <          1.2E-13 Ry

     The total energy is the sum of the following terms:

     one-electron contribution =     -66.95455740 Ry
     hartree contribution      =      84.74437332 Ry
     xc contribution           =    -123.67942679 Ry
     ewald contribution        =    -340.10948059 Ry

     convergence has been achieved in  14 iterations

     Forces acting on atoms (cartesian axes, Ry/au):

     atom    1 type  1   force =    -0.00386732   -0.00386732    0.00000000
     atom    2 type  1   force =    -0.00306353   -0.00306353    0.00000000
     atom    3 type  2   force =    -0.05425069    0.05310328    0.00000000
     atom    4 type  2   force =     0.05310328   -0.05425069    0.00000000
     atom    5 type  2   force =    -0.04963164   -0.04963164    0.00000000
     atom    6 type  2   force =     0.05770990    0.05770990    0.00000000

     Total force =     0.152192     Total SCF correction =     0.000002


     Computing stress (Cartesian axis) and pressure

          total   stress  (Ry/bohr**3)                   (kbar)     P= -635.29
  -0.00533113   0.00000019   0.00000000       -784.24      0.03      0.00
   0.00000019  -0.00533113   0.00000000          0.03   -784.24      0.00
   0.00000000   0.00000000  -0.00229356          0.00      0.00   -337.39


     number of scf cycles    =   2
     number of bfgs steps    =   1

     enthalpy old            =    -443.0921654678 Ry
     enthalpy new            =    -445.9990914597 Ry

     CASE: enthalpy_new < enthalpy_old

     new trust radius        =       0.1608708599 bohr
     new conv_thr            =            1.0E-12 Ry

     new unit-cell volume =    337.34589 a.u.^3 (    49.98950 Ang^3 )
     density =     10.01236 g/cm^3

CELL_PARAMETERS (alat=  9.11000000)
   0.851056518   0.000000000   0.000000000
   0.000000000   0.851056518   0.000000000
   0.000000000   0.000000000   0.616032314

ATOMIC_POSITIONS (crystal)
Sn      -0.000434854  -0.000434854   0.000000000
Sn       0.499652820   0.499652820   0.500000000
O        0.800051284   0.198823451   0.500000000
O        0.198823451   0.800051284   0.500000000
O        0.300568307   0.300568307   0.000000000
O        0.699338993   0.699338993   0.000000000



     Writing output data file SnO2.save
     NEW-OLD atomic charge density approx. for the potential

     Check: negative/imaginary core charge=   -0.000304    0.000000
     extrapolated charge   49.04025, renormalised to   52.00000

     total cpu time spent up to now is     1141.9 secs

     Self-consistent Calculation

     iteration #  1     ecut=    35.00 Ry     beta= 0.70
     Davidson diagonalization with overlap
     ethr =  1.00E-06,  avg # of iterations =  6.4

     total cpu time spent up to now is     1221.0 secs

     total energy              =    -445.68094432 Ry
     Harris-Foulkes estimate   =    -449.90376542 Ry
     estimated scf accuracy    <       0.19991144 Ry

     iteration #  2     ecut=    35.00 Ry     beta= 0.70
     Davidson diagonalization with overlap
     ethr =  3.84E-04,  avg # of iterations =  3.0

     total cpu time spent up to now is     1267.9 secs

     total energy              =    -445.98729064 Ry
     Harris-Foulkes estimate   =    -446.10674283 Ry
     estimated scf accuracy    <       0.29527824 Ry

     iteration #  3     ecut=    35.00 Ry     beta= 0.70
     Davidson diagonalization with overlap
     ethr =  3.84E-04,  avg # of iterations =  2.0

     total cpu time spent up to now is     1301.8 secs

     total energy              =    -445.99529625 Ry
     Harris-Foulkes estimate   =    -446.00974687 Ry
     estimated scf accuracy    <       0.04366868 Ry

     iteration #  4     ecut=    35.00 Ry     beta= 0.70
     Davidson diagonalization with overlap
     ethr =  8.40E-05,  avg # of iterations =  1.0

     total cpu time spent up to now is     1329.5 secs

     total energy              =    -445.98692002 Ry
     Harris-Foulkes estimate   =    -445.99703707 Ry
     estimated scf accuracy    <       0.01638572 Ry

     iteration #  5     ecut=    35.00 Ry     beta= 0.70
     Davidson diagonalization with overlap
     ethr =  3.15E-05,  avg # of iterations =  2.0

     total cpu time spent up to now is     1369.6 secs

     total energy              =    -445.99117879 Ry
     Harris-Foulkes estimate   =    -445.99149633 Ry
     estimated scf accuracy    <       0.00055429 Ry

     iteration #  6     ecut=    35.00 Ry     beta= 0.70
     Davidson diagonalization with overlap
     ethr =  1.07E-06,  avg # of iterations =  2.0

     total cpu time spent up to now is     1405.6 secs

     total energy              =    -445.99130686 Ry
     Harris-Foulkes estimate   =    -445.99130744 Ry
     estimated scf accuracy    <       0.00000124 Ry

     iteration #  7     ecut=    35.00 Ry     beta= 0.70
     Davidson diagonalization with overlap
     ethr =  2.38E-09,  avg # of iterations =  3.1

     total cpu time spent up to now is     1452.1 secs

     total energy              =    -445.99130865 Ry
     Harris-Foulkes estimate   =    -445.99130876 Ry
     estimated scf accuracy    <       0.00000088 Ry

     iteration #  8     ecut=    35.00 Ry     beta= 0.70
     Davidson diagonalization with overlap
     ethr =  1.69E-09,  avg # of iterations =  1.1

     total cpu time spent up to now is     1480.0 secs

     total energy              =    -445.99130844 Ry
     Harris-Foulkes estimate   =    -445.99130868 Ry
     estimated scf accuracy    <       0.00000067 Ry

     iteration #  9     ecut=    35.00 Ry     beta= 0.70
     Davidson diagonalization with overlap
     ethr =  1.29E-09,  avg # of iterations =  1.7

     total cpu time spent up to now is     1508.2 secs

     total energy              =    -445.99130843 Ry
     Harris-Foulkes estimate   =    -445.99130848 Ry
     estimated scf accuracy    <       0.00000017 Ry

     iteration # 10     ecut=    35.00 Ry     beta= 0.70
     Davidson diagonalization with overlap
     ethr =  3.18E-10,  avg # of iterations =  2.0

     total cpu time spent up to now is     1540.8 secs

     total energy              =    -445.99130842 Ry
     Harris-Foulkes estimate   =    -445.99130844 Ry
     estimated scf accuracy    <       0.00000004 Ry

     iteration # 11     ecut=    35.00 Ry     beta= 0.70
     Davidson diagonalization with overlap
     ethr =  7.53E-11,  avg # of iterations =  2.0

     total cpu time spent up to now is     1578.5 secs

     total energy              =    -445.99130843 Ry
     Harris-Foulkes estimate   =    -445.99130843 Ry
     estimated scf accuracy    <          6.4E-10 Ry

     iteration # 12     ecut=    35.00 Ry     beta= 0.70
     Davidson diagonalization with overlap
     ethr =  1.23E-12,  avg # of iterations =  2.0

     total cpu time spent up to now is     1613.8 secs

     total energy              =    -445.99130843 Ry
     Harris-Foulkes estimate   =    -445.99130843 Ry
     estimated scf accuracy    <          1.4E-10 Ry

     iteration # 13     ecut=    35.00 Ry     beta= 0.70
     Davidson diagonalization with overlap
     ethr =  2.66E-13,  avg # of iterations =  2.0

     total cpu time spent up to now is     1644.4 secs

     total energy              =    -445.99130843 Ry
     Harris-Foulkes estimate   =    -445.99130843 Ry
     estimated scf accuracy    <          4.7E-11 Ry

     iteration # 14     ecut=    35.00 Ry     beta= 0.70
     Davidson diagonalization with overlap
     ethr =  1.00E-13,  avg # of iterations =  2.0

     total cpu time spent up to now is     1676.8 secs

     total energy              =    -445.99130843 Ry
     Harris-Foulkes estimate   =    -445.99130843 Ry
     estimated scf accuracy    <          4.2E-12 Ry

     iteration # 15     ecut=    35.00 Ry     beta= 0.70
     Davidson diagonalization with overlap
     ethr =  1.00E-13,  avg # of iterations =  1.0

     total cpu time spent up to now is     1704.5 secs

     total energy              =    -445.99130843 Ry
     Harris-Foulkes estimate   =    -445.99130843 Ry
     estimated scf accuracy    <          1.7E-12 Ry

     iteration # 16     ecut=    35.00 Ry     beta= 0.70
     Davidson diagonalization with overlap
     ethr =  1.00E-13,  avg # of iterations =  1.0

     total cpu time spent up to now is     1732.4 secs

     End of self-consistent calculation

     Number of k-points >= 100: set verbosity='high' to print the bands.

     highest occupied level (ev):    16.6310

!    total energy              =    -445.99130843 Ry
     Harris-Foulkes estimate   =    -445.99130843 Ry
     estimated scf accuracy    <          2.1E-14 Ry

     The total energy is the sum of the following terms:

     one-electron contribution =     -53.12615394 Ry
     hartree contribution      =      80.25878303 Ry
     xc contribution           =    -124.03789936 Ry
     ewald contribution        =    -349.08603816 Ry

     convergence has been achieved in  16 iterations

     Forces acting on atoms (cartesian axes, Ry/au):

     atom    1 type  1   force =     0.00712196    0.00712196    0.00000000
     atom    2 type  1   force =     0.00234571    0.00234571    0.00000000
     atom    3 type  2   force =     0.09346853   -0.09302230    0.00000000
     atom    4 type  2   force =    -0.09302230    0.09346853    0.00000000
     atom    5 type  2   force =     0.08829538    0.08829538    0.00000000
     atom    6 type  2   force =    -0.09820928   -0.09820928    0.00000000

     Total force =     0.264147     Total SCF correction =     0.000001


     Computing stress (Cartesian axis) and pressure

          total   stress  (Ry/bohr**3)                   (kbar)     P=   36.38
   0.00297262   0.00000013   0.00000000        437.29      0.02      0.00
   0.00000013   0.00297262   0.00000000          0.02    437.29      0.00
   0.00000000   0.00000000  -0.00520323          0.00      0.00   -765.42


     number of scf cycles    =   3
     number of bfgs steps    =   2

     enthalpy old            =    -445.9990914597 Ry
     enthalpy new            =    -445.9913084302 Ry

     CASE: enthalpy_new > enthalpy_old

     new trust radius        =       0.0778468890 bohr
     new conv_thr            =            1.0E-12 Ry

     new unit-cell volume =    347.47716 a.u.^3 (    51.49080 Ang^3 )
     density =      9.72043 g/cm^3

CELL_PARAMETERS (alat=  9.11000000)
   0.870887112   0.000000000   0.000000000
   0.000000000   0.870887112   0.000000000
   0.000000000   0.000000000   0.605964819

ATOMIC_POSITIONS (crystal)
Sn      -0.000225365  -0.000225365   0.000000000
Sn       0.499814930   0.499814930   0.500000000
O        0.803204684   0.195737527   0.500000000
O        0.195737527   0.803204684   0.500000000
O        0.303468152   0.303468152   0.000000000
O        0.696000072   0.696000072   0.000000000



     Writing output data file SnO2.save
     NEW-OLD atomic charge density approx. for the potential

     Check: negative/imaginary core charge=   -0.000320    0.000000
     extrapolated charge   53.51606, renormalised to   52.00000

     total cpu time spent up to now is     1746.9 secs

     Self-consistent Calculation

     iteration #  1     ecut=    35.00 Ry     beta= 0.70
     Davidson diagonalization with overlap
     ethr =  1.00E-06,  avg # of iterations =  5.9

     total cpu time spent up to now is     1817.5 secs

     total energy              =    -445.94944198 Ry
     Harris-Foulkes estimate   =    -443.86266888 Ry
     estimated scf accuracy    <       0.05114485 Ry

     iteration #  2     ecut=    35.00 Ry     beta= 0.70
     Davidson diagonalization with overlap
     ethr =  9.84E-05,  avg # of iterations =  3.8

     total cpu time spent up to now is     1870.1 secs

     total energy              =    -446.03733711 Ry
     Harris-Foulkes estimate   =    -446.07172958 Ry
     estimated scf accuracy    <       0.08727958 Ry

     iteration #  3     ecut=    35.00 Ry     beta= 0.70
     Davidson diagonalization with overlap
     ethr =  9.84E-05,  avg # of iterations =  2.0

     total cpu time spent up to now is     1904.2 secs

     total energy              =    -446.03872607 Ry
     Harris-Foulkes estimate   =    -446.04342047 Ry
     estimated scf accuracy    <       0.01485131 Ry

     iteration #  4     ecut=    35.00 Ry     beta= 0.70
     Davidson diagonalization with overlap
     ethr =  2.86E-05,  avg # of iterations =  1.0

     total cpu time spent up to now is     1931.9 secs

     total energy              =    -446.03566178 Ry
     Harris-Foulkes estimate   =    -446.03923032 Ry
     estimated scf accuracy    <       0.00601496 Ry

     iteration #  5     ecut=    35.00 Ry     beta= 0.70
     Davidson diagonalization with overlap
     ethr =  1.16E-05,  avg # of iterations =  2.0

     total cpu time spent up to now is     1972.1 secs

     total energy              =    -446.03701779 Ry
     Harris-Foulkes estimate   =    -446.03705563 Ry
     estimated scf accuracy    <       0.00006186 Ry

     iteration #  6     ecut=    35.00 Ry     beta= 0.70
     Davidson diagonalization with overlap
     ethr =  1.19E-07,  avg # of iterations =  3.0

     total cpu time spent up to now is     2010.4 secs

     total energy              =    -446.03703628 Ry
     Harris-Foulkes estimate   =    -446.03703714 Ry
     estimated scf accuracy    <       0.00000148 Ry

     iteration #  7     ecut=    35.00 Ry     beta= 0.70
     Davidson diagonalization with overlap
     ethr =  2.85E-09,  avg # of iterations =  2.0

     total cpu time spent up to now is     2050.6 secs

     total energy              =    -446.03703670 Ry
     Harris-Foulkes estimate   =    -446.03703680 Ry
     estimated scf accuracy    <       0.00000017 Ry

     iteration #  8     ecut=    35.00 Ry     beta= 0.70
     Davidson diagonalization with overlap
     ethr =  3.28E-10,  avg # of iterations =  2.0

     total cpu time spent up to now is     2089.5 secs

     total energy              =    -446.03703672 Ry
     Harris-Foulkes estimate   =    -446.03703673 Ry
     estimated scf accuracy    <       0.00000001 Ry

     iteration #  9     ecut=    35.00 Ry     beta= 0.70
     Davidson diagonalization with overlap
     ethr =  2.27E-11,  avg # of iterations =  2.0

     total cpu time spent up to now is     2129.0 secs

     total energy              =    -446.03703672 Ry
     Harris-Foulkes estimate   =    -446.03703672 Ry
     estimated scf accuracy    <          2.9E-10 Ry

     iteration # 10     ecut=    35.00 Ry     beta= 0.70
     Davidson diagonalization with overlap
     ethr =  5.66E-13,  avg # of iterations =  3.0

     total cpu time spent up to now is     2170.1 secs

     total energy              =    -446.03703672 Ry
     Harris-Foulkes estimate   =    -446.03703672 Ry
     estimated scf accuracy    <          3.3E-11 Ry

     iteration # 11     ecut=    35.00 Ry     beta= 0.70
     Davidson diagonalization with overlap
     ethr =  1.00E-13,  avg # of iterations =  2.0

     total cpu time spent up to now is     2204.9 secs

     total energy              =    -446.03703672 Ry
     Harris-Foulkes estimate   =    -446.03703672 Ry
     estimated scf accuracy    <          3.7E-12 Ry

     iteration # 12     ecut=    35.00 Ry     beta= 0.70
     Davidson diagonalization with overlap
     ethr =  1.00E-13,  avg # of iterations =  1.0

     total cpu time spent up to now is     2232.3 secs

     End of self-consistent calculation

     Number of k-points >= 100: set verbosity='high' to print the bands.

     highest occupied level (ev):    15.7911

!    total energy              =    -446.03703672 Ry
     Harris-Foulkes estimate   =    -446.03703672 Ry
     estimated scf accuracy    <          8.1E-14 Ry

     The total energy is the sum of the following terms:

     one-electron contribution =     -60.18776609 Ry
     hartree contribution      =      82.48841656 Ry
     xc contribution           =    -123.84210783 Ry
     ewald contribution        =    -344.49557935 Ry

     convergence has been achieved in  12 iterations

     Forces acting on atoms (cartesian axes, Ry/au):

     atom    1 type  1   force =    -0.00007965   -0.00007965    0.00000000
     atom    2 type  1   force =    -0.00017629   -0.00017629    0.00000000
     atom    3 type  2   force =     0.00921807   -0.00962681    0.00000000
     atom    4 type  2   force =    -0.00962681    0.00921807    0.00000000
     atom    5 type  2   force =     0.00974808    0.00974808    0.00000000
     atom    6 type  2   force =    -0.00908340   -0.00908340    0.00000000

     Total force =     0.026654     Total SCF correction =     0.000001


     Computing stress (Cartesian axis) and pressure

          total   stress  (Ry/bohr**3)                   (kbar)     P= -326.96
  -0.00150799  -0.00000000   0.00000000       -221.83     -0.00      0.00
  -0.00000000  -0.00150799   0.00000000         -0.00   -221.83      0.00
   0.00000000   0.00000000  -0.00365183          0.00      0.00   -537.20


     number of scf cycles    =   4
     number of bfgs steps    =   2

     enthalpy old            =    -445.9990914597 Ry
     enthalpy new            =    -446.0370367220 Ry

     CASE: enthalpy_new < enthalpy_old

     new trust radius        =       0.1004097348 bohr
     new conv_thr            =            1.0E-12 Ry

     new unit-cell volume =    335.79622 a.u.^3 (    49.75987 Ang^3 )
     density =     10.05857 g/cm^3

CELL_PARAMETERS (alat=  9.11000000)
   0.867891095   0.000000000   0.000000000
   0.000000000   0.867891095   0.000000000
   0.000000000   0.000000000   0.589644445

ATOMIC_POSITIONS (crystal)
Sn      -0.000336920  -0.000336920   0.000000000
Sn       0.499721171   0.499721171   0.500000000
O        0.802328389   0.196535791   0.500000000
O        0.196535791   0.802328389   0.500000000
O        0.302771981   0.302771981   0.000000000
O        0.696979589   0.696979589   0.000000000



     Writing output data file SnO2.save
     NEW-OLD atomic charge density approx. for the potential

     Check: negative/imaginary core charge=   -0.000281    0.000000
     extrapolated charge   50.19125, renormalised to   52.00000

     total cpu time spent up to now is     2247.2 secs

     Self-consistent Calculation

     iteration #  1     ecut=    35.00 Ry     beta= 0.70
     Davidson diagonalization with overlap
     ethr =  1.00E-06,  avg # of iterations =  5.0

     total cpu time spent up to now is     2315.1 secs

     total energy              =    -445.92105673 Ry
     Harris-Foulkes estimate   =    -448.54940134 Ry
     estimated scf accuracy    <       0.07899019 Ry

     iteration #  2     ecut=    35.00 Ry     beta= 0.70
     Davidson diagonalization with overlap
     ethr =  1.52E-04,  avg # of iterations =  3.0

     total cpu time spent up to now is     2361.9 secs

     total energy              =    -446.04220209 Ry
     Harris-Foulkes estimate   =    -446.08872936 Ry
     estimated scf accuracy    <       0.11433586 Ry

     iteration #  3     ecut=    35.00 Ry     beta= 0.70
     Davidson diagonalization with overlap
     ethr =  1.52E-04,  avg # of iterations =  2.0

     total cpu time spent up to now is     2396.2 secs

     total energy              =    -446.04542324 Ry
     Harris-Foulkes estimate   =    -446.05082700 Ry
     estimated scf accuracy    <       0.01710450 Ry

     iteration #  4     ecut=    35.00 Ry     beta= 0.70
     Davidson diagonalization with overlap
     ethr =  3.29E-05,  avg # of iterations =  1.0

     total cpu time spent up to now is     2423.8 secs

     total energy              =    -446.04176270 Ry
     Harris-Foulkes estimate   =    -446.04604158 Ry
     estimated scf accuracy    <       0.00686979 Ry

     iteration #  5     ecut=    35.00 Ry     beta= 0.70
     Davidson diagonalization with overlap
     ethr =  1.32E-05,  avg # of iterations =  2.0

     total cpu time spent up to now is     2463.6 secs

     total energy              =    -446.04350504 Ry
     Harris-Foulkes estimate   =    -446.04362570 Ry
     estimated scf accuracy    <       0.00020811 Ry

     iteration #  6     ecut=    35.00 Ry     beta= 0.70
     Davidson diagonalization with overlap
     ethr =  4.00E-07,  avg # of iterations =  2.0

     total cpu time spent up to now is     2500.5 secs

     total energy              =    -446.04355372 Ry
     Harris-Foulkes estimate   =    -446.04355389 Ry
     estimated scf accuracy    <       0.00000047 Ry

     iteration #  7     ecut=    35.00 Ry     beta= 0.70
     Davidson diagonalization with overlap
     ethr =  8.96E-10,  avg # of iterations =  3.7

     total cpu time spent up to now is     2548.4 secs

     total energy              =    -446.04355435 Ry
     Harris-Foulkes estimate   =    -446.04355449 Ry
     estimated scf accuracy    <       0.00000055 Ry

     iteration #  8     ecut=    35.00 Ry     beta= 0.70
     Davidson diagonalization with overlap
     ethr =  8.96E-10,  avg # of iterations =  1.0

     total cpu time spent up to now is     2575.7 secs

     total energy              =    -446.04355425 Ry
     Harris-Foulkes estimate   =    -446.04355437 Ry
     estimated scf accuracy    <       0.00000033 Ry

     iteration #  9     ecut=    35.00 Ry     beta= 0.70
     Davidson diagonalization with overlap
     ethr =  6.28E-10,  avg # of iterations =  2.0

     total cpu time spent up to now is     2605.5 secs

     total energy              =    -446.04355425 Ry
     Harris-Foulkes estimate   =    -446.04355427 Ry
     estimated scf accuracy    <       0.00000007 Ry

     iteration # 10     ecut=    35.00 Ry     beta= 0.70
     Davidson diagonalization with overlap
     ethr =  1.35E-10,  avg # of iterations =  2.0

     total cpu time spent up to now is     2635.9 secs

     total energy              =    -446.04355424 Ry
     Harris-Foulkes estimate   =    -446.04355426 Ry
     estimated scf accuracy    <       0.00000002 Ry

     iteration # 11     ecut=    35.00 Ry     beta= 0.70
     Davidson diagonalization with overlap
     ethr =  4.61E-11,  avg # of iterations =  2.1

     total cpu time spent up to now is     2673.0 secs

     total energy              =    -446.04355425 Ry
     Harris-Foulkes estimate   =    -446.04355425 Ry
     estimated scf accuracy    <          8.7E-11 Ry

     iteration # 12     ecut=    35.00 Ry     beta= 0.70
     Davidson diagonalization with overlap
     ethr =  1.67E-13,  avg # of iterations =  3.0

     total cpu time spent up to now is     2716.9 secs

     total energy              =    -446.04355425 Ry
     Harris-Foulkes estimate   =    -446.04355425 Ry
     estimated scf accuracy    <          2.2E-11 Ry

     iteration # 13     ecut=    35.00 Ry     beta= 0.70
     Davidson diagonalization with overlap
     ethr =  1.00E-13,  avg # of iterations =  1.0

     total cpu time spent up to now is     2744.7 secs

     total energy              =    -446.04355425 Ry
     Harris-Foulkes estimate   =    -446.04355425 Ry
     estimated scf accuracy    <          6.6E-12 Ry

     iteration # 14     ecut=    35.00 Ry     beta= 0.70
     Davidson diagonalization with overlap
     ethr =  1.00E-13,  avg # of iterations =  1.0

     total cpu time spent up to now is     2772.5 secs

     End of self-consistent calculation

     Number of k-points >= 100: set verbosity='high' to print the bands.

     highest occupied level (ev):    16.5328

!    total energy              =    -446.04355425 Ry
     Harris-Foulkes estimate   =    -446.04355425 Ry
     estimated scf accuracy    <          7.8E-13 Ry

     The total energy is the sum of the following terms:

     one-electron contribution =     -55.91319373 Ry
     hartree contribution      =      81.79510648 Ry
     xc contribution           =    -124.15174580 Ry
     ewald contribution        =    -347.77372120 Ry

     convergence has been achieved in  14 iterations

     Forces acting on atoms (cartesian axes, Ry/au):

     atom    1 type  1   force =     0.00348256    0.00348256    0.00000000
     atom    2 type  1   force =     0.00172154    0.00172154    0.00000000
     atom    3 type  2   force =    -0.00761739    0.00773045    0.00000000
     atom    4 type  2   force =     0.00773045   -0.00761739    0.00000000
     atom    5 type  2   force =    -0.01032438   -0.01032438    0.00000000
     atom    6 type  2   force =     0.00500721    0.00500721    0.00000000

     Total force =     0.023002     Total SCF correction =     0.000005


     Computing stress (Cartesian axis) and pressure

          total   stress  (Ry/bohr**3)                   (kbar)     P=  220.04
   0.00105129   0.00000006   0.00000000        154.65      0.01      0.00
   0.00000006   0.00105129   0.00000000          0.01    154.65      0.00
   0.00000000   0.00000000   0.00238486          0.00      0.00    350.82


     number of scf cycles    =   5
     number of bfgs steps    =   3

     enthalpy old            =    -446.0370367220 Ry
     enthalpy new            =    -446.0435542472 Ry

     CASE: enthalpy_new < enthalpy_old

     new trust radius        =       0.0391410641 bohr
     new conv_thr            =            1.0E-12 Ry

     new unit-cell volume =    340.42777 a.u.^3 (    50.44619 Ang^3 )
     density =      9.92172 g/cm^3

CELL_PARAMETERS (alat=  9.11000000)
   0.869226624   0.000000000   0.000000000
   0.000000000   0.869226624   0.000000000
   0.000000000   0.000000000   0.595941753

ATOMIC_POSITIONS (crystal)
Sn      -0.000095404  -0.000095404   0.000000000
Sn       0.499850451   0.499850451   0.500000000
O        0.802571972   0.196314031   0.500000000
O        0.196314031   0.802571972   0.500000000
O        0.302808785   0.302808785   0.000000000
O        0.696550165   0.696550165   0.000000000



     Writing output data file SnO2.save
     NEW-OLD atomic charge density approx. for the potential

     Check: negative/imaginary core charge=   -0.000295    0.000000

     negative rho (up, down):  3.168E-06 0.000E+00
     extrapolated charge   52.70742, renormalised to   52.00000

     total cpu time spent up to now is     2787.1 secs

     Self-consistent Calculation

     iteration #  1     ecut=    35.00 Ry     beta= 0.70
     Davidson diagonalization with overlap
     ethr =  1.00E-06,  avg # of iterations =  4.0

     total cpu time spent up to now is     2848.4 secs

     total energy              =    -446.02868733 Ry
     Harris-Foulkes estimate   =    -445.05033334 Ry
     estimated scf accuracy    <       0.01203971 Ry

     iteration #  2     ecut=    35.00 Ry     beta= 0.70
     Davidson diagonalization with overlap
     ethr =  2.32E-05,  avg # of iterations =  3.4

     total cpu time spent up to now is     2899.1 secs

     total energy              =    -446.04825499 Ry
     Harris-Foulkes estimate   =    -446.05582394 Ry
     estimated scf accuracy    <       0.01883138 Ry

     iteration #  3     ecut=    35.00 Ry     beta= 0.70
     Davidson diagonalization with overlap
     ethr =  2.32E-05,  avg # of iterations =  2.0

     total cpu time spent up to now is     2933.4 secs

     total energy              =    -446.04873198 Ry
     Harris-Foulkes estimate   =    -446.04962001 Ry
     estimated scf accuracy    <       0.00301539 Ry

     iteration #  4     ecut=    35.00 Ry     beta= 0.70
     Davidson diagonalization with overlap
     ethr =  5.80E-06,  avg # of iterations =  1.0

     total cpu time spent up to now is     2960.9 secs

     total energy              =    -446.04806517 Ry
     Harris-Foulkes estimate   =    -446.04882331 Ry
     estimated scf accuracy    <       0.00133093 Ry

     iteration #  5     ecut=    35.00 Ry     beta= 0.70
     Davidson diagonalization with overlap
     ethr =  2.56E-06,  avg # of iterations =  2.0

     total cpu time spent up to now is     3000.7 secs

     total energy              =    -446.04832329 Ry
     Harris-Foulkes estimate   =    -446.04832803 Ry
     estimated scf accuracy    <       0.00000673 Ry

     iteration #  6     ecut=    35.00 Ry     beta= 0.70
     Davidson diagonalization with overlap
     ethr =  1.29E-08,  avg # of iterations =  2.7

     total cpu time spent up to now is     3042.0 secs

     total energy              =    -446.04832542 Ry
     Harris-Foulkes estimate   =    -446.04832553 Ry
     estimated scf accuracy    <       0.00000020 Ry

     iteration #  7     ecut=    35.00 Ry     beta= 0.70
     Davidson diagonalization with overlap
     ethr =  3.79E-10,  avg # of iterations =  2.0

     total cpu time spent up to now is     3082.5 secs

     total energy              =    -446.04832548 Ry
     Harris-Foulkes estimate   =    -446.04832551 Ry
     estimated scf accuracy    <       0.00000008 Ry

     iteration #  8     ecut=    35.00 Ry     beta= 0.70
     Davidson diagonalization with overlap
     ethr =  1.55E-10,  avg # of iterations =  2.0

     total cpu time spent up to now is     3111.9 secs

     total energy              =    -446.04832547 Ry
     Harris-Foulkes estimate   =    -446.04832548 Ry
     estimated scf accuracy    <       0.00000003 Ry

     iteration #  9     ecut=    35.00 Ry     beta= 0.70
     Davidson diagonalization with overlap
     ethr =  5.48E-11,  avg # of iterations =  2.0

     total cpu time spent up to now is     3150.4 secs

     total energy              =    -446.04832547 Ry
     Harris-Foulkes estimate   =    -446.04832547 Ry
     estimated scf accuracy    <          8.7E-10 Ry

     iteration # 10     ecut=    35.00 Ry     beta= 0.70
     Davidson diagonalization with overlap
     ethr =  1.66E-12,  avg # of iterations =  2.3

     total cpu time spent up to now is     3185.3 secs

     total energy              =    -446.04832547 Ry
     Harris-Foulkes estimate   =    -446.04832547 Ry
     estimated scf accuracy    <          1.4E-10 Ry

     iteration # 11     ecut=    35.00 Ry     beta= 0.70
     Davidson diagonalization with overlap
     ethr =  2.61E-13,  avg # of iterations =  2.0

     total cpu time spent up to now is     3222.6 secs

     End of self-consistent calculation

     Number of k-points >= 100: set verbosity='high' to print the bands.

     highest occupied level (ev):    16.2288

!    total energy              =    -446.04832547 Ry
     Harris-Foulkes estimate   =    -446.04832547 Ry
     estimated scf accuracy    <          7.4E-13 Ry

     The total energy is the sum of the following terms:

     one-electron contribution =     -57.64563203 Ry
     hartree contribution      =      82.07802653 Ry
     xc contribution           =    -124.02851505 Ry
     ewald contribution        =    -346.45220492 Ry

     convergence has been achieved in  11 iterations

     Forces acting on atoms (cartesian axes, Ry/au):

     atom    1 type  1   force =    -0.00253742   -0.00253742    0.00000000
     atom    2 type  1   force =    -0.00065265   -0.00065265    0.00000000
     atom    3 type  2   force =     0.00009170   -0.00094573    0.00000000
     atom    4 type  2   force =    -0.00094573    0.00009170   -0.00000000
     atom    5 type  2   force =     0.00253927    0.00253927    0.00000000
     atom    6 type  2   force =     0.00150483    0.00150483    0.00000000

     Total force =     0.005741     Total SCF correction =     0.000003


     Computing stress (Cartesian axis) and pressure

          total   stress  (Ry/bohr**3)                   (kbar)     P=   -0.36
  -0.00000458   0.00000009   0.00000000         -0.67      0.01      0.00
   0.00000009  -0.00000458   0.00000000          0.01     -0.67      0.00
   0.00000000   0.00000000   0.00000173          0.00      0.00      0.25


     number of scf cycles    =   6
     number of bfgs steps    =   4

     enthalpy old            =    -446.0435542472 Ry
     enthalpy new            =    -446.0483254700 Ry

     CASE: enthalpy_new < enthalpy_old

     new trust radius        =       0.0027186799 bohr
     new conv_thr            =            1.0E-12 Ry

     new unit-cell volume =    340.43904 a.u.^3 (    50.44786 Ang^3 )
     density =      9.92139 g/cm^3

CELL_PARAMETERS (alat=  9.11000000)
   0.869189082   0.000000000   0.000000000
   0.000000000   0.869189082   0.000000000
   0.000000000   0.000000000   0.596012960

ATOMIC_POSITIONS (crystal)
Sn      -0.000336516  -0.000336516   0.000000000
Sn       0.499788641   0.499788641   0.500000000
O        0.802582156   0.196222583   0.500000000
O        0.196222583   0.802582156   0.500000000
O        0.303051553   0.303051553   0.000000000
O        0.696691584   0.696691584   0.000000000



     Writing output data file SnO2.save
     NEW-OLD atomic charge density approx. for the potential

     Check: negative/imaginary core charge=   -0.000295    0.000000
     extrapolated charge   52.00172, renormalised to   52.00000

     total cpu time spent up to now is     3237.5 secs

     Self-consistent Calculation

     iteration #  1     ecut=    35.00 Ry     beta= 0.70
     Davidson diagonalization with overlap
     ethr =  1.00E-06,  avg # of iterations =  3.0

     Threshold (ethr) on eigenvalues was too large:
     Diagonalizing with lowered threshold

     Davidson diagonalization with overlap
     ethr =  6.04E-09,  avg # of iterations =  2.1

     total cpu time spent up to now is     3316.7 secs

     total energy              =    -446.04832325 Ry
     Harris-Foulkes estimate   =    -446.04590180 Ry
     estimated scf accuracy    <       0.00000318 Ry

     iteration #  2     ecut=    35.00 Ry     beta= 0.70
     Davidson diagonalization with overlap
     ethr =  6.12E-09,  avg # of iterations =  2.0

     total cpu time spent up to now is     3353.6 secs

     total energy              =    -446.04832379 Ry
     Harris-Foulkes estimate   =    -446.04832397 Ry
     estimated scf accuracy    <       0.00000038 Ry

     iteration #  3     ecut=    35.00 Ry     beta= 0.70
     Davidson diagonalization with overlap
     ethr =  7.36E-10,  avg # of iterations =  2.5

     total cpu time spent up to now is     3393.9 secs

     total energy              =    -446.04832388 Ry
     Harris-Foulkes estimate   =    -446.04832392 Ry
     estimated scf accuracy    <       0.00000010 Ry

     iteration #  4     ecut=    35.00 Ry     beta= 0.70
     Davidson diagonalization with overlap
     ethr =  1.92E-10,  avg # of iterations =  2.5

     total cpu time spent up to now is     3431.0 secs

     total energy              =    -446.04832390 Ry
     Harris-Foulkes estimate   =    -446.04832391 Ry
     estimated scf accuracy    <       0.00000001 Ry

     iteration #  5     ecut=    35.00 Ry     beta= 0.70
     Davidson diagonalization with overlap
     ethr =  2.02E-11,  avg # of iterations =  2.4

     total cpu time spent up to now is     3468.1 secs

     total energy              =    -446.04832391 Ry
     Harris-Foulkes estimate   =    -446.04832391 Ry
     estimated scf accuracy    <          6.7E-10 Ry

     iteration #  6     ecut=    35.00 Ry     beta= 0.70
     Davidson diagonalization with overlap
     ethr =  1.30E-12,  avg # of iterations =  2.1

     total cpu time spent up to now is     3505.9 secs

     total energy              =    -446.04832391 Ry
     Harris-Foulkes estimate   =    -446.04832391 Ry
     estimated scf accuracy    <          1.6E-11 Ry

     iteration #  7     ecut=    35.00 Ry     beta= 0.70
     Davidson diagonalization with overlap
     ethr =  1.00E-13,  avg # of iterations =  2.0

     total cpu time spent up to now is     3539.4 secs

     total energy              =    -446.04832391 Ry
     Harris-Foulkes estimate   =    -446.04832391 Ry
     estimated scf accuracy    <          1.4E-12 Ry

     iteration #  8     ecut=    35.00 Ry     beta= 0.70
     Davidson diagonalization with overlap
     ethr =  1.00E-13,  avg # of iterations =  1.0

     total cpu time spent up to now is     3567.4 secs

     End of self-consistent calculation

     Number of k-points >= 100: set verbosity='high' to print the bands.

     highest occupied level (ev):    16.2290

!    total energy              =    -446.04832391 Ry
     Harris-Foulkes estimate   =    -446.04832391 Ry
     estimated scf accuracy    <          9.9E-14 Ry

     The total energy is the sum of the following terms:

     one-electron contribution =     -57.65025232 Ry
     hartree contribution      =      82.07939138 Ry
     xc contribution           =    -124.02821027 Ry
     ewald contribution        =    -346.44925269 Ry

     convergence has been achieved in   8 iterations

     Forces acting on atoms (cartesian axes, Ry/au):

     atom    1 type  1   force =     0.00351358    0.00351358    0.00000000
     atom    2 type  1   force =     0.00104797    0.00104797    0.00000000
     atom    3 type  2   force =     0.00002796   -0.00006300    0.00000000
     atom    4 type  2   force =    -0.00006300    0.00002796    0.00000000
     atom    5 type  2   force =    -0.00221403   -0.00221403    0.00000000
     atom    6 type  2   force =    -0.00231249   -0.00231249    0.00000000

     Total force =     0.006884     Total SCF correction =     0.000001


     Computing stress (Cartesian axis) and pressure

          total   stress  (Ry/bohr**3)                   (kbar)     P=   -0.97
  -0.00000629   0.00000005   0.00000000         -0.92      0.01      0.00
   0.00000005  -0.00000629   0.00000000          0.01     -0.92      0.00
   0.00000000   0.00000000  -0.00000723          0.00      0.00     -1.06


     number of scf cycles    =   7
     number of bfgs steps    =   5

     enthalpy old            =    -446.0483254700 Ry
     enthalpy new            =    -446.0483239061 Ry

     CASE: enthalpy_new > enthalpy_old

     new trust radius        =       0.0012794097 bohr
     new conv_thr            =            1.0E-12 Ry

     new unit-cell volume =    340.43308 a.u.^3 (    50.44698 Ang^3 )
     density =      9.92157 g/cm^3

CELL_PARAMETERS (alat=  9.11000000)
   0.869208956   0.000000000   0.000000000
   0.000000000   0.869208956   0.000000000
   0.000000000   0.000000000   0.595975264

ATOMIC_POSITIONS (crystal)
Sn      -0.000208876  -0.000208876   0.000000000
Sn       0.499821362   0.499821362   0.500000000
O        0.802576765   0.196270993   0.500000000
O        0.196270993   0.802576765   0.500000000
O        0.302923037   0.302923037   0.000000000
O        0.696616720   0.696616720   0.000000000



     Writing output data file SnO2.save
     NEW-OLD atomic charge density approx. for the potential

     Check: negative/imaginary core charge=   -0.000295    0.000000
     extrapolated charge   51.99909, renormalised to   52.00000

     total cpu time spent up to now is     3581.6 secs

     Self-consistent Calculation

     iteration #  1     ecut=    35.00 Ry     beta= 0.70
     Davidson diagonalization with overlap
     ethr =  1.00E-06,  avg # of iterations =  3.0

     Threshold (ethr) on eigenvalues was too large:
     Diagonalizing with lowered threshold

     Davidson diagonalization with overlap
     ethr =  1.48E-09,  avg # of iterations =  3.0

     total cpu time spent up to now is     3664.4 secs

     total energy              =    -446.04833117 Ry
     Harris-Foulkes estimate   =    -446.04961393 Ry
     estimated scf accuracy    <       0.00000090 Ry

     iteration #  2     ecut=    35.00 Ry     beta= 0.70
     Davidson diagonalization with overlap
     ethr =  1.73E-09,  avg # of iterations =  2.0

     total cpu time spent up to now is     3701.4 secs

     total energy              =    -446.04833132 Ry
     Harris-Foulkes estimate   =    -446.04833138 Ry
     estimated scf accuracy    <       0.00000011 Ry

     iteration #  3     ecut=    35.00 Ry     beta= 0.70
     Davidson diagonalization with overlap
     ethr =  2.20E-10,  avg # of iterations =  2.6

     total cpu time spent up to now is     3741.8 secs

     total energy              =    -446.04833135 Ry
     Harris-Foulkes estimate   =    -446.04833137 Ry
     estimated scf accuracy    <       0.00000003 Ry

     iteration #  4     ecut=    35.00 Ry     beta= 0.70
     Davidson diagonalization with overlap
     ethr =  5.89E-11,  avg # of iterations =  2.5

     total cpu time spent up to now is     3779.2 secs

     total energy              =    -446.04833136 Ry
     Harris-Foulkes estimate   =    -446.04833136 Ry
     estimated scf accuracy    <          2.9E-09 Ry

     iteration #  5     ecut=    35.00 Ry     beta= 0.70
     Davidson diagonalization with overlap
     ethr =  5.63E-12,  avg # of iterations =  2.4

     total cpu time spent up to now is     3816.8 secs

     total energy              =    -446.04833136 Ry
     Harris-Foulkes estimate   =    -446.04833136 Ry
     estimated scf accuracy    <          1.8E-10 Ry

     iteration #  6     ecut=    35.00 Ry     beta= 0.70
     Davidson diagonalization with overlap
     ethr =  3.55E-13,  avg # of iterations =  2.0

     total cpu time spent up to now is     3854.9 secs

     total energy              =    -446.04833136 Ry
     Harris-Foulkes estimate   =    -446.04833136 Ry
     estimated scf accuracy    <          4.4E-12 Ry

     iteration #  7     ecut=    35.00 Ry     beta= 0.70
     Davidson diagonalization with overlap
     ethr =  1.00E-13,  avg # of iterations =  1.0

     total cpu time spent up to now is     3882.4 secs

     End of self-consistent calculation

     Number of k-points >= 100: set verbosity='high' to print the bands.

     highest occupied level (ev):    16.2289

!    total energy              =    -446.04833136 Ry
     Harris-Foulkes estimate   =    -446.04833136 Ry
     estimated scf accuracy    <          2.8E-13 Ry

     The total energy is the sum of the following terms:

     one-electron contribution =     -57.64769945 Ry
     hartree contribution      =      82.07861580 Ry
     xc contribution           =    -124.02836836 Ry
     ewald contribution        =    -346.45087935 Ry

     convergence has been achieved in   7 iterations

     Forces acting on atoms (cartesian axes, Ry/au):

     atom    1 type  1   force =     0.00031200    0.00031200    0.00000000
     atom    2 type  1   force =     0.00014712    0.00014712    0.00000000
     atom    3 type  2   force =     0.00006175   -0.00053005    0.00000000
     atom    4 type  2   force =    -0.00053005    0.00006175   -0.00000000
     atom    5 type  2   force =     0.00029731    0.00029731    0.00000000
     atom    6 type  2   force =    -0.00028814   -0.00028814    0.00000000

     Total force =     0.001073     Total SCF correction =     0.000003


     Computing stress (Cartesian axis) and pressure

          total   stress  (Ry/bohr**3)                   (kbar)     P=   -0.66
  -0.00000544   0.00000002   0.00000000         -0.80      0.00      0.00
   0.00000002  -0.00000544   0.00000000          0.00     -0.80      0.00
   0.00000000   0.00000000  -0.00000250          0.00      0.00     -0.37


     number of scf cycles    =   8
     number of bfgs steps    =   5

     enthalpy old            =    -446.0483254700 Ry
     enthalpy new            =    -446.0483313610 Ry

     CASE: enthalpy_new < enthalpy_old

     new trust radius        =       0.0004233593 bohr
     new conv_thr            =            1.0E-12 Ry

     new unit-cell volume =    340.41920 a.u.^3 (    50.44492 Ang^3 )
     density =      9.92197 g/cm^3

CELL_PARAMETERS (alat=  9.11000000)
   0.869172917   0.000000000   0.000000000
   0.000000000   0.869172917   0.000000000
   0.000000000   0.000000000   0.596000399

ATOMIC_POSITIONS (crystal)
Sn      -0.000188135  -0.000188135   0.000000000
Sn       0.499833104   0.499833104   0.500000000
O        0.802582188   0.196217804   0.500000000
O        0.196217804   0.802582188   0.500000000
O        0.302959676   0.302959676   0.000000000
O        0.696595364   0.696595364   0.000000000



     Writing output data file SnO2.save
     NEW-OLD atomic charge density approx. for the potential

     Check: negative/imaginary core charge=   -0.000295    0.000000
     extrapolated charge   51.99788, renormalised to   52.00000

     total cpu time spent up to now is     3897.1 secs

     Self-consistent Calculation

     iteration #  1     ecut=    35.00 Ry     beta= 0.70
     Davidson diagonalization with overlap
     ethr =  1.00E-06,  avg # of iterations =  2.0

     Threshold (ethr) on eigenvalues was too large:
     Diagonalizing with lowered threshold

     Davidson diagonalization with overlap
     ethr =  4.91E-10,  avg # of iterations =  3.0

     total cpu time spent up to now is     3979.0 secs

     total energy              =    -446.04833181 Ry
     Harris-Foulkes estimate   =    -446.05131508 Ry
     estimated scf accuracy    <       0.00000027 Ry

     iteration #  2     ecut=    35.00 Ry     beta= 0.70
     Davidson diagonalization with overlap
     ethr =  5.12E-10,  avg # of iterations =  3.0

     total cpu time spent up to now is     4023.7 secs

     total energy              =    -446.04833201 Ry
     Harris-Foulkes estimate   =    -446.04833209 Ry
     estimated scf accuracy    <       0.00000017 Ry

     iteration #  3     ecut=    35.00 Ry     beta= 0.70
     Davidson diagonalization with overlap
     ethr =  3.35E-10,  avg # of iterations =  2.0

     total cpu time spent up to now is     4058.2 secs

     total energy              =    -446.04833202 Ry
     Harris-Foulkes estimate   =    -446.04833203 Ry
     estimated scf accuracy    <       0.00000001 Ry

     iteration #  4     ecut=    35.00 Ry     beta= 0.70
     Davidson diagonalization with overlap
     ethr =  2.47E-11,  avg # of iterations =  2.0

     total cpu time spent up to now is     4093.9 secs

     total energy              =    -446.04833202 Ry
     Harris-Foulkes estimate   =    -446.04833202 Ry
     estimated scf accuracy    <          1.4E-09 Ry

     iteration #  5     ecut=    35.00 Ry     beta= 0.70
     Davidson diagonalization with overlap
     ethr =  2.70E-12,  avg # of iterations =  2.0

     total cpu time spent up to now is     4130.6 secs

     total energy              =    -446.04833202 Ry
     Harris-Foulkes estimate   =    -446.04833202 Ry
     estimated scf accuracy    <          5.2E-11 Ry

     iteration #  6     ecut=    35.00 Ry     beta= 0.70
     Davidson diagonalization with overlap
     ethr =  1.01E-13,  avg # of iterations =  2.7

     total cpu time spent up to now is     4170.6 secs

     total energy              =    -446.04833202 Ry
     Harris-Foulkes estimate   =    -446.04833202 Ry
     estimated scf accuracy    <          1.6E-11 Ry

     iteration #  7     ecut=    35.00 Ry     beta= 0.70
     Davidson diagonalization with overlap
     ethr =  1.00E-13,  avg # of iterations =  2.0

     total cpu time spent up to now is     4203.1 secs

     End of self-consistent calculation

     Number of k-points >= 100: set verbosity='high' to print the bands.

     highest occupied level (ev):    16.2304

!    total energy              =    -446.04833202 Ry
     Harris-Foulkes estimate   =    -446.04833202 Ry
     estimated scf accuracy    <          6.9E-13 Ry

     The total energy is the sum of the following terms:

     one-electron contribution =     -57.64112855 Ry
     hartree contribution      =      82.07736478 Ry
     xc contribution           =    -124.02869820 Ry
     ewald contribution        =    -346.45587005 Ry

     convergence has been achieved in   7 iterations

     Forces acting on atoms (cartesian axes, Ry/au):

     atom    1 type  1   force =     0.00018069    0.00018069    0.00000000
     atom    2 type  1   force =     0.00019039    0.00019039    0.00000000
     atom    3 type  2   force =    -0.00025691   -0.00027240    0.00000000
     atom    4 type  2   force =    -0.00027240   -0.00025691    0.00000000
     atom    5 type  2   force =     0.00008885    0.00008885    0.00000000
     atom    6 type  2   force =     0.00006937    0.00006937    0.00000000

     Total force =     0.000666     Total SCF correction =     0.000001


     Computing stress (Cartesian axis) and pressure

          total   stress  (Ry/bohr**3)                   (kbar)     P=   -0.09
  -0.00000095   0.00000005   0.00000000         -0.14      0.01      0.00
   0.00000005  -0.00000095   0.00000000          0.01     -0.14      0.00
   0.00000000   0.00000000  -0.00000001          0.00      0.00     -0.00


     number of scf cycles    =   9
     number of bfgs steps    =   6

     enthalpy old            =    -446.0483313610 Ry
     enthalpy new            =    -446.0483320226 Ry

     CASE: enthalpy_new < enthalpy_old

     new trust radius        =       0.0006368427 bohr
     new conv_thr            =            1.0E-12 Ry

     new unit-cell volume =    340.40812 a.u.^3 (    50.44328 Ang^3 )
     density =      9.92229 g/cm^3

CELL_PARAMETERS (alat=  9.11000000)
   0.869144770   0.000000000   0.000000000
   0.000000000   0.869144770   0.000000000
   0.000000000   0.000000000   0.596019595

ATOMIC_POSITIONS (crystal)
Sn      -0.000155063  -0.000155063   0.000000000
Sn       0.499866815   0.499866815   0.500000000
O        0.802547174   0.196145398   0.500000000
O        0.196145398   0.802547174   0.500000000
O        0.302998823   0.302998823   0.000000000
O        0.696596854   0.696596854   0.000000000



     Writing output data file SnO2.save
     NEW-OLD atomic charge density approx. for the potential

     Check: negative/imaginary core charge=   -0.000295    0.000000
     extrapolated charge   51.99831, renormalised to   52.00000

     total cpu time spent up to now is     4217.4 secs

     Self-consistent Calculation

     iteration #  1     ecut=    35.00 Ry     beta= 0.70
     Davidson diagonalization with overlap
     ethr =  1.00E-06,  avg # of iterations =  2.0

     Threshold (ethr) on eigenvalues was too large:
     Diagonalizing with lowered threshold

     Davidson diagonalization with overlap
     ethr =  4.73E-10,  avg # of iterations =  3.0

     total cpu time spent up to now is     4298.8 secs

     total energy              =    -446.04833252 Ry
     Harris-Foulkes estimate   =    -446.05071594 Ry
     estimated scf accuracy    <       0.00000030 Ry

     iteration #  2     ecut=    35.00 Ry     beta= 0.70
     Davidson diagonalization with overlap
     ethr =  5.81E-10,  avg # of iterations =  2.8

     total cpu time spent up to now is     4341.1 secs

     total energy              =    -446.04833266 Ry
     Harris-Foulkes estimate   =    -446.04833273 Ry
     estimated scf accuracy    <       0.00000012 Ry

     iteration #  3     ecut=    35.00 Ry     beta= 0.70
     Davidson diagonalization with overlap
     ethr =  2.37E-10,  avg # of iterations =  2.0

     total cpu time spent up to now is     4376.9 secs

     total energy              =    -446.04833268 Ry
     Harris-Foulkes estimate   =    -446.04833268 Ry
     estimated scf accuracy    <          5.9E-09 Ry

     iteration #  4     ecut=    35.00 Ry     beta= 0.70
     Davidson diagonalization with overlap
     ethr =  1.13E-11,  avg # of iterations =  2.0

     total cpu time spent up to now is     4416.6 secs

     total energy              =    -446.04833268 Ry
     Harris-Foulkes estimate   =    -446.04833268 Ry
     estimated scf accuracy    <          1.5E-09 Ry

     iteration #  5     ecut=    35.00 Ry     beta= 0.70
     Davidson diagonalization with overlap
     ethr =  2.82E-12,  avg # of iterations =  2.9

     total cpu time spent up to now is     4456.1 secs

     total energy              =    -446.04833268 Ry
     Harris-Foulkes estimate   =    -446.04833268 Ry
     estimated scf accuracy    <          1.8E-10 Ry

     iteration #  6     ecut=    35.00 Ry     beta= 0.70
     Davidson diagonalization with overlap
     ethr =  3.46E-13,  avg # of iterations =  2.3

     total cpu time spent up to now is     4492.1 secs

     total energy              =    -446.04833268 Ry
     Harris-Foulkes estimate   =    -446.04833268 Ry
     estimated scf accuracy    <          8.9E-12 Ry

     iteration #  7     ecut=    35.00 Ry     beta= 0.70
     Davidson diagonalization with overlap
     ethr =  1.00E-13,  avg # of iterations =  1.0

     total cpu time spent up to now is     4520.1 secs

     End of self-consistent calculation

     Number of k-points >= 100: set verbosity='high' to print the bands.

     highest occupied level (ev):    16.2315

!    total energy              =    -446.04833268 Ry
     Harris-Foulkes estimate   =    -446.04833268 Ry
     estimated scf accuracy    <          1.2E-13 Ry

     The total energy is the sum of the following terms:

     one-electron contribution =     -57.63521895 Ry
     hartree contribution      =      82.07601249 Ry
     xc contribution           =    -124.02895053 Ry
     ewald contribution        =    -346.46017570 Ry

     convergence has been achieved in   7 iterations

     Forces acting on atoms (cartesian axes, Ry/au):

     atom    1 type  1   force =     0.00013763    0.00013763    0.00000000
     atom    2 type  1   force =     0.00021985    0.00021985    0.00000000
     atom    3 type  2   force =    -0.00048986   -0.00016071    0.00000000
     atom    4 type  2   force =    -0.00016071   -0.00048986    0.00000000
     atom    5 type  2   force =    -0.00001765   -0.00001765    0.00000000
     atom    6 type  2   force =     0.00031074    0.00031074    0.00000000

     Total force =     0.000927     Total SCF correction =     0.000001


     Computing stress (Cartesian axis) and pressure

          total   stress  (Ry/bohr**3)                   (kbar)     P=    0.35
   0.00000293   0.00000006   0.00000000          0.43      0.01      0.00
   0.00000006   0.00000293   0.00000000          0.01      0.43      0.00
   0.00000000  -0.00000000   0.00000124          0.00     -0.00      0.18


     number of scf cycles    =  10
     number of bfgs steps    =   7

     enthalpy old            =    -446.0483320226 Ry
     enthalpy new            =    -446.0483326816 Ry

     CASE: enthalpy_new < enthalpy_old


     WARNING: bfgs curvature condition failed, Theta= 0.987
     new trust radius        =       0.0009552331 bohr
     new conv_thr            =            1.0E-12 Ry

     new unit-cell volume =    340.39657 a.u.^3 (    50.44157 Ang^3 )
     density =      9.92263 g/cm^3

CELL_PARAMETERS (alat=  9.11000000)
   0.869115314   0.000000000   0.000000000
   0.000000000   0.869115314   0.000000000
   0.000000000   0.000000000   0.596039776

ATOMIC_POSITIONS (crystal)
Sn      -0.000105629  -0.000105629   0.000000000
Sn       0.499918514   0.499918514   0.500000000
O        0.802484127   0.196042541   0.500000000
O        0.196042541   0.802484127   0.500000000
O        0.303051139   0.303051139   0.000000000
O        0.696609308   0.696609308   0.000000000



     Writing output data file SnO2.save
     NEW-OLD atomic charge density approx. for the potential

     Check: negative/imaginary core charge=   -0.000295    0.000000
     extrapolated charge   51.99824, renormalised to   52.00000

     total cpu time spent up to now is     4534.9 secs

     Self-consistent Calculation

     iteration #  1     ecut=    35.00 Ry     beta= 0.70
     Davidson diagonalization with overlap
     ethr =  1.00E-06,  avg # of iterations =  2.0

     Threshold (ethr) on eigenvalues was too large:
     Diagonalizing with lowered threshold

     Davidson diagonalization with overlap
     ethr =  8.96E-10,  avg # of iterations =  3.0

     total cpu time spent up to now is     4616.7 secs

     total energy              =    -446.04833350 Ry
     Harris-Foulkes estimate   =    -446.05081667 Ry
     estimated scf accuracy    <       0.00000057 Ry

     iteration #  2     ecut=    35.00 Ry     beta= 0.70
     Davidson diagonalization with overlap
     ethr =  1.10E-09,  avg # of iterations =  2.0

     total cpu time spent up to now is     4657.1 secs

     total energy              =    -446.04833370 Ry
     Harris-Foulkes estimate   =    -446.04833378 Ry
     estimated scf accuracy    <       0.00000016 Ry

     iteration #  3     ecut=    35.00 Ry     beta= 0.70
     Davidson diagonalization with overlap
     ethr =  3.07E-10,  avg # of iterations =  2.0

     total cpu time spent up to now is     4695.7 secs

     total energy              =    -446.04833373 Ry
     Harris-Foulkes estimate   =    -446.04833373 Ry
     estimated scf accuracy    <          7.7E-09 Ry

     iteration #  4     ecut=    35.00 Ry     beta= 0.70
     Davidson diagonalization with overlap
     ethr =  1.48E-11,  avg # of iterations =  2.6

     total cpu time spent up to now is     4737.0 secs

     total energy              =    -446.04833373 Ry
     Harris-Foulkes estimate   =    -446.04833373 Ry
     estimated scf accuracy    <          2.8E-09 Ry

     iteration #  5     ecut=    35.00 Ry     beta= 0.70
     Davidson diagonalization with overlap
     ethr =  5.43E-12,  avg # of iterations =  2.8

     total cpu time spent up to now is     4775.3 secs

     total energy              =    -446.04833373 Ry
     Harris-Foulkes estimate   =    -446.04833373 Ry
     estimated scf accuracy    <          2.5E-10 Ry

     iteration #  6     ecut=    35.00 Ry     beta= 0.70
     Davidson diagonalization with overlap
     ethr =  4.86E-13,  avg # of iterations =  2.2

     total cpu time spent up to now is     4812.2 secs

     total energy              =    -446.04833373 Ry
     Harris-Foulkes estimate   =    -446.04833373 Ry
     estimated scf accuracy    <          8.6E-12 Ry

     iteration #  7     ecut=    35.00 Ry     beta= 0.70
     Davidson diagonalization with overlap
     ethr =  1.00E-13,  avg # of iterations =  1.0

     total cpu time spent up to now is     4840.0 secs

     End of self-consistent calculation

     Number of k-points >= 100: set verbosity='high' to print the bands.

     highest occupied level (ev):    16.2327

!    total energy              =    -446.04833373 Ry
     Harris-Foulkes estimate   =    -446.04833373 Ry
     estimated scf accuracy    <          2.4E-13 Ry

     The total energy is the sum of the following terms:

     one-electron contribution =     -57.62902975 Ry
     hartree contribution      =      82.07458961 Ry
     xc contribution           =    -124.02921052 Ry
     ewald contribution        =    -346.46468307 Ry

     convergence has been achieved in   7 iterations

     Forces acting on atoms (cartesian axes, Ry/au):

     atom    1 type  1   force =     0.00010853    0.00010853    0.00000000
     atom    2 type  1   force =     0.00027351    0.00027351    0.00000000
     atom    3 type  2   force =    -0.00076599   -0.00006675    0.00000000
     atom    4 type  2   force =    -0.00006675   -0.00076599    0.00000000
     atom    5 type  2   force =    -0.00012335   -0.00012335    0.00000000
     atom    6 type  2   force =     0.00057405    0.00057405    0.00000000

     Total force =     0.001430     Total SCF correction =     0.000001


     Computing stress (Cartesian axis) and pressure

          total   stress  (Ry/bohr**3)                   (kbar)     P=    0.81
   0.00000693   0.00000011   0.00000000          1.02      0.02      0.00
   0.00000011   0.00000693   0.00000000          0.02      1.02      0.00
   0.00000000   0.00000000   0.00000256          0.00      0.00      0.38


     number of scf cycles    =  11
     number of bfgs steps    =   8

     enthalpy old            =    -446.0483326816 Ry
     enthalpy new            =    -446.0483337287 Ry

     CASE: enthalpy_new < enthalpy_old


     WARNING: bfgs curvature condition failed, Theta= 0.649
     new trust radius        =       0.0014328011 bohr
     new conv_thr            =            1.0E-12 Ry

     new unit-cell volume =    340.37637 a.u.^3 (    50.43857 Ang^3 )
     density =      9.92322 g/cm^3

CELL_PARAMETERS (alat=  9.11000000)
   0.869063742   0.000000000   0.000000000
   0.000000000   0.869063742   0.000000000
   0.000000000   0.000000000   0.596075134

ATOMIC_POSITIONS (crystal)
Sn      -0.000031186  -0.000031186   0.000000000
Sn       0.499995202   0.499995202   0.500000000
O        0.802395764   0.195884618   0.500000000
O        0.195884618   0.802395764   0.500000000
O        0.303133459   0.303133459   0.000000000
O        0.696622143   0.696622143   0.000000000



     Writing output data file SnO2.save
     NEW-OLD atomic charge density approx. for the potential

     Check: negative/imaginary core charge=   -0.000295    0.000000
     extrapolated charge   51.99691, renormalised to   52.00000

     total cpu time spent up to now is     4854.3 secs

     Self-consistent Calculation

     iteration #  1     ecut=    35.00 Ry     beta= 0.70
     Davidson diagonalization with overlap
     ethr =  1.00E-06,  avg # of iterations =  3.0

     Threshold (ethr) on eigenvalues was too large:
     Diagonalizing with lowered threshold

     Davidson diagonalization with overlap
     ethr =  2.28E-09,  avg # of iterations =  2.8

     total cpu time spent up to now is     4936.2 secs

     total energy              =    -446.04833444 Ry
     Harris-Foulkes estimate   =    -446.05267984 Ry
     estimated scf accuracy    <       0.00000136 Ry

     iteration #  2     ecut=    35.00 Ry     beta= 0.70
     Davidson diagonalization with overlap
     ethr =  2.61E-09,  avg # of iterations =  2.0

     total cpu time spent up to now is     4975.9 secs

     total energy              =    -446.04833498 Ry
     Harris-Foulkes estimate   =    -446.04833521 Ry
     estimated scf accuracy    <       0.00000045 Ry

     iteration #  3     ecut=    35.00 Ry     beta= 0.70
     Davidson diagonalization with overlap
     ethr =  8.59E-10,  avg # of iterations =  2.0

     total cpu time spent up to now is     5013.2 secs

     total energy              =    -446.04833505 Ry
     Harris-Foulkes estimate   =    -446.04833505 Ry
     estimated scf accuracy    <       0.00000002 Ry

     iteration #  4     ecut=    35.00 Ry     beta= 0.70
     Davidson diagonalization with overlap
     ethr =  3.84E-11,  avg # of iterations =  2.3

[...]
O        0.714530106   0.714530106   0.000000000



     Writing output data file SnO2.save
     NEW-OLD atomic charge density approx. for the potential

     Check: negative/imaginary core charge=   -0.000300    0.000000
     extrapolated charge   52.00556, renormalised to   52.00000

     total cpu time spent up to now is    18749.4 secs

     Self-consistent Calculation

     iteration #  1     ecut=    35.00 Ry     beta= 0.70
     Davidson diagonalization with overlap
     ethr =  1.00E-06,  avg # of iterations =  3.0

     Threshold (ethr) on eigenvalues was too large:
     Diagonalizing with lowered threshold

     Davidson diagonalization with overlap
     ethr =  4.50E-09,  avg # of iterations =  2.2

     total cpu time spent up to now is    18824.9 secs

     total energy              =    -446.06952865 Ry
     Harris-Foulkes estimate   =    -446.06222785 Ry
     estimated scf accuracy    <       0.00000254 Ry

     iteration #  2     ecut=    35.00 Ry     beta= 0.70
     Davidson diagonalization with overlap
     ethr =  4.89E-09,  avg # of iterations =  3.0

     total cpu time spent up to now is    18868.5 secs

     total energy              =    -446.06952999 Ry
     Harris-Foulkes estimate   =    -446.06953086 Ry
     estimated scf accuracy    <       0.00000175 Ry

     iteration #  3     ecut=    35.00 Ry     beta= 0.70
     Davidson diagonalization with overlap
     ethr =  3.36E-09,  avg # of iterations =  2.0

     total cpu time spent up to now is    18902.4 secs

     total energy              =    -446.06953022 Ry
     Harris-Foulkes estimate   =    -446.06953027 Ry
     estimated scf accuracy    <       0.00000009 Ry

     iteration #  4     ecut=    35.00 Ry     beta= 0.70
     Davidson diagonalization with overlap
     ethr =  1.79E-10,  avg # of iterations =  2.4

     total cpu time spent up to now is    18942.5 secs

     total energy              =    -446.06953024 Ry
     Harris-Foulkes estimate   =    -446.06953025 Ry
     estimated scf accuracy    <       0.00000003 Ry

     iteration #  5     ecut=    35.00 Ry     beta= 0.70
     Davidson diagonalization with overlap
     ethr =  5.02E-11,  avg # of iterations =  3.0

     total cpu time spent up to now is    18979.5 secs

     total energy              =    -446.06953024 Ry
     Harris-Foulkes estimate   =    -446.06953024 Ry
     estimated scf accuracy    <          2.5E-09 Ry

     iteration #  6     ecut=    35.00 Ry     beta= 0.70
     Davidson diagonalization with overlap
     ethr =  4.77E-12,  avg # of iterations =  2.9

     total cpu time spent up to now is    19015.5 secs

     total energy              =    -446.06953024 Ry
     Harris-Foulkes estimate   =    -446.06953024 Ry
     estimated scf accuracy    <          1.2E-10 Ry

     iteration #  7     ecut=    35.00 Ry     beta= 0.70
     Davidson diagonalization with overlap
     ethr =  2.36E-13,  avg # of iterations =  2.7

     total cpu time spent up to now is    19055.7 secs

     total energy              =    -446.06953024 Ry
     Harris-Foulkes estimate   =    -446.06953024 Ry
     estimated scf accuracy    <          3.1E-11 Ry

     iteration #  8     ecut=    35.00 Ry     beta= 0.70
     Davidson diagonalization with overlap
     ethr =  1.00E-13,  avg # of iterations =  2.1

     total cpu time spent up to now is    19088.4 secs

     total energy              =    -446.06953024 Ry
     Harris-Foulkes estimate   =    -446.06953024 Ry
     estimated scf accuracy    <          1.1E-12 Ry

     iteration #  9     ecut=    35.00 Ry     beta= 0.70
     Davidson diagonalization with overlap
     ethr =  1.00E-13,  avg # of iterations =  1.0

     total cpu time spent up to now is    19115.5 secs

     End of self-consistent calculation

     Number of k-points >= 100: set verbosity='high' to print the bands.

     highest occupied level (ev):    16.5930

!    total energy              =    -446.06953024 Ry
     Harris-Foulkes estimate   =    -446.06953024 Ry
     estimated scf accuracy    <          7.3E-14 Ry

     The total energy is the sum of the following terms:

     one-electron contribution =     -51.66264055 Ry
     hartree contribution      =      79.58755355 Ry
     xc contribution           =    -123.92555623 Ry
     ewald contribution        =    -350.06888701 Ry

     convergence has been achieved in   9 iterations

     Forces acting on atoms (cartesian axes, Ry/au):

     atom    1 type  1   force =     0.00004921    0.00004921    0.00000000
     atom    2 type  1   force =    -0.00024892   -0.00024892    0.00000000
     atom    3 type  2   force =    -0.00005783   -0.00010014    0.00000000
     atom    4 type  2   force =    -0.00010014   -0.00005783    0.00000000
     atom    5 type  2   force =     0.00006873    0.00006873    0.00000000
     atom    6 type  2   force =     0.00028895    0.00028895    0.00000000

     Total force =     0.000576     Total SCF correction =     0.000000


     Computing stress (Cartesian axis) and pressure

          total   stress  (Ry/bohr**3)                   (kbar)     P=   -0.27
  -0.00000187   0.00108326   0.00000000         -0.28    159.35      0.00
   0.00108326  -0.00000187   0.00000000        159.35     -0.28      0.00
   0.00000000   0.00000000  -0.00000183          0.00      0.00     -0.27


     number of scf cycles    =  48
     number of bfgs steps    =  43

     enthalpy old            =    -446.0695287337 Ry
     enthalpy new            =    -446.0695302424 Ry

     CASE: enthalpy_new < enthalpy_old

     new trust radius        =       0.0005270701 bohr
     new conv_thr            =            1.0E-12 Ry

     new unit-cell volume =    337.35339 a.u.^3 (    49.99061 Ang^3 )
     density =     10.01214 g/cm^3

CELL_PARAMETERS (alat=  9.11000000)
   0.865708902   0.000000000   0.000000000
   0.000000000   0.865708902   0.000000000
   0.000000000   0.000000000   0.595368956

ATOMIC_POSITIONS (crystal)
Sn       0.023988360   0.023988360   0.000000000
Sn       0.529113041   0.529113041   0.500000000
O        0.755831805   0.152034485   0.500000000
O        0.152034485   0.755831805   0.500000000
O        0.322466363   0.322466363   0.000000000
O        0.714565945   0.714565945   0.000000000



     Writing output data file SnO2.save
     NEW-OLD atomic charge density approx. for the potential

     Check: negative/imaginary core charge=   -0.000300    0.000000
     extrapolated charge   51.99830, renormalised to   52.00000

     total cpu time spent up to now is    19130.0 secs

     Self-consistent Calculation

     iteration #  1     ecut=    35.00 Ry     beta= 0.70
     Davidson diagonalization with overlap
     ethr =  1.00E-06,  avg # of iterations =  2.0

     Threshold (ethr) on eigenvalues was too large:
     Diagonalizing with lowered threshold

     Davidson diagonalization with overlap
     ethr =  2.95E-10,  avg # of iterations =  3.0

     total cpu time spent up to now is    19209.6 secs

     total energy              =    -446.06953024 Ry
     Harris-Foulkes estimate   =    -446.07176071 Ry
     estimated scf accuracy    <       0.00000023 Ry

     iteration #  2     ecut=    35.00 Ry     beta= 0.70
     Davidson diagonalization with overlap
     ethr =  4.42E-10,  avg # of iterations =  3.0

     total cpu time spent up to now is    19253.2 secs

     total energy              =    -446.06953036 Ry
     Harris-Foulkes estimate   =    -446.06953044 Ry
     estimated scf accuracy    <       0.00000016 Ry

     iteration #  3     ecut=    35.00 Ry     beta= 0.70
     Davidson diagonalization with overlap
     ethr =  3.10E-10,  avg # of iterations =  2.0

     total cpu time spent up to now is    19288.0 secs

     total energy              =    -446.06953038 Ry
     Harris-Foulkes estimate   =    -446.06953039 Ry
     estimated scf accuracy    <          8.9E-09 Ry

     iteration #  4     ecut=    35.00 Ry     beta= 0.70
     Davidson diagonalization with overlap
     ethr =  1.72E-11,  avg # of iterations =  2.2

     total cpu time spent up to now is    19327.6 secs

     total energy              =    -446.06953038 Ry
     Harris-Foulkes estimate   =    -446.06953038 Ry
     estimated scf accuracy    <          2.7E-09 Ry

     iteration #  5     ecut=    35.00 Ry     beta= 0.70
     Davidson diagonalization with overlap
     ethr =  5.24E-12,  avg # of iterations =  3.0

     total cpu time spent up to now is    19364.2 secs

     total energy              =    -446.06953038 Ry
     Harris-Foulkes estimate   =    -446.06953038 Ry
     estimated scf accuracy    <          1.9E-10 Ry

     iteration #  6     ecut=    35.00 Ry     beta= 0.70
     Davidson diagonalization with overlap
     ethr =  3.61E-13,  avg # of iterations =  2.2

     total cpu time spent up to now is    19399.7 secs

     total energy              =    -446.06953038 Ry
     Harris-Foulkes estimate   =    -446.06953038 Ry
     estimated scf accuracy    <          9.5E-12 Ry

     iteration #  7     ecut=    35.00 Ry     beta= 0.70
     Davidson diagonalization with overlap
     ethr =  1.00E-13,  avg # of iterations =  2.0

     total cpu time spent up to now is    19429.7 secs

     total energy              =    -446.06953038 Ry
     Harris-Foulkes estimate   =    -446.06953038 Ry
     estimated scf accuracy    <          3.2E-12 Ry

     iteration #  8     ecut=    35.00 Ry     beta= 0.70
     Davidson diagonalization with overlap
     ethr =  1.00E-13,  avg # of iterations =  1.0

     total cpu time spent up to now is    19456.8 secs

     End of self-consistent calculation

     Number of k-points >= 100: set verbosity='high' to print the bands.

     highest occupied level (ev):    16.5942

!    total energy              =    -446.06953038 Ry
     Harris-Foulkes estimate   =    -446.06953038 Ry
     estimated scf accuracy    <          1.6E-13 Ry

     The total energy is the sum of the following terms:

     one-electron contribution =     -51.64901515 Ry
     hartree contribution      =      79.58243034 Ry
     xc contribution           =    -123.92550668 Ry
     ewald contribution        =    -350.07743890 Ry

     convergence has been achieved in   8 iterations

     Forces acting on atoms (cartesian axes, Ry/au):

     atom    1 type  1   force =    -0.00004118   -0.00004118    0.00000000
     atom    2 type  1   force =     0.00002186    0.00002186    0.00000000
     atom    3 type  2   force =    -0.00002537    0.00004961    0.00000000
     atom    4 type  2   force =     0.00004961   -0.00002537    0.00000000
     atom    5 type  2   force =     0.00003299    0.00003299    0.00000000
     atom    6 type  2   force =    -0.00003791   -0.00003791    0.00000000

     Total force =     0.000125     Total SCF correction =     0.000001


     Computing stress (Cartesian axis) and pressure

          total   stress  (Ry/bohr**3)                   (kbar)     P=   -0.01
  -0.00000028   0.00108533   0.00000000         -0.04    159.66      0.00
   0.00108533  -0.00000028   0.00000000        159.66     -0.04      0.00
   0.00000000   0.00000000   0.00000026          0.00      0.00      0.04


     number of scf cycles    =  49
     number of bfgs steps    =  44

     enthalpy old            =    -446.0695302424 Ry
     enthalpy new            =    -446.0695303835 Ry

     CASE: enthalpy_new < enthalpy_old

     small trust_radius: resetting bfgs history

     new trust radius        =       0.0000582428 bohr
     new conv_thr            =            1.0E-12 Ry

     new unit-cell volume =    337.35090 a.u.^3 (    49.99025 Ang^3 )
     density =     10.01221 g/cm^3

CELL_PARAMETERS (alat=  9.11000000)
   0.865702890   0.000000000   0.000000000
   0.000000000   0.865702890   0.000000000
   0.000000000   0.000000000   0.595372829

ATOMIC_POSITIONS (crystal)
Sn       0.023983138   0.023983138   0.000000000
Sn       0.529115813   0.529115813   0.500000000
O        0.755828588   0.152040776   0.500000000
O        0.152040776   0.755828588   0.500000000
O        0.322470546   0.322470546   0.000000000
O        0.714561139   0.714561139   0.000000000



     Writing output data file SnO2.save
     NEW-OLD atomic charge density approx. for the potential

     Check: negative/imaginary core charge=   -0.000300    0.000000
     extrapolated charge   51.99962, renormalised to   52.00000

     total cpu time spent up to now is    19470.9 secs

     Self-consistent Calculation

     iteration #  1     ecut=    35.00 Ry     beta= 0.70
     Davidson diagonalization with overlap
     ethr =  1.00E-06,  avg # of iterations =  1.0

     Threshold (ethr) on eigenvalues was too large:
     Diagonalizing with lowered threshold

     Davidson diagonalization with overlap
     ethr =  8.06E-11,  avg # of iterations =  3.0

     total cpu time spent up to now is    19547.2 secs

     total energy              =    -446.06953038 Ry
     Harris-Foulkes estimate   =    -446.07003498 Ry
     estimated scf accuracy    <          8.2E-09 Ry

     iteration #  2     ecut=    35.00 Ry     beta= 0.70
     Davidson diagonalization with overlap
     ethr =  1.58E-11,  avg # of iterations =  3.0

     total cpu time spent up to now is    19591.6 secs

     total energy              =    -446.06953038 Ry
     Harris-Foulkes estimate   =    -446.06953039 Ry
     estimated scf accuracy    <          7.3E-09 Ry

     iteration #  3     ecut=    35.00 Ry     beta= 0.70
     Davidson diagonalization with overlap
     ethr =  1.40E-11,  avg # of iterations =  2.0

     total cpu time spent up to now is    19624.4 secs

     total energy              =    -446.06953038 Ry
     Harris-Foulkes estimate   =    -446.06953038 Ry
     estimated scf accuracy    <          5.7E-10 Ry

     iteration #  4     ecut=    35.00 Ry     beta= 0.70
     Davidson diagonalization with overlap
     ethr =  1.09E-12,  avg # of iterations =  2.0

     total cpu time spent up to now is    19662.7 secs

     total energy              =    -446.06953038 Ry
     Harris-Foulkes estimate   =    -446.06953038 Ry
     estimated scf accuracy    <          1.2E-10 Ry

     iteration #  5     ecut=    35.00 Ry     beta= 0.70
     Davidson diagonalization with overlap
     ethr =  2.35E-13,  avg # of iterations =  2.9

     total cpu time spent up to now is    19699.5 secs

     total energy              =    -446.06953038 Ry
     Harris-Foulkes estimate   =    -446.06953038 Ry
     estimated scf accuracy    <          1.1E-11 Ry

     iteration #  6     ecut=    35.00 Ry     beta= 0.70
     Davidson diagonalization with overlap
     ethr =  1.00E-13,  avg # of iterations =  2.0

     total cpu time spent up to now is    19729.5 secs

     End of self-consistent calculation

     Number of k-points >= 100: set verbosity='high' to print the bands.

     highest occupied level (ev):    16.5945

!    total energy              =    -446.06953038 Ry
     Harris-Foulkes estimate   =    -446.06953038 Ry
     estimated scf accuracy    <          3.8E-13 Ry

     The total energy is the sum of the following terms:

     one-electron contribution =     -51.64789368 Ry
     hartree contribution      =      79.58219506 Ry
     xc contribution           =    -123.92557261 Ry
     ewald contribution        =    -350.07825915 Ry

     convergence has been achieved in   6 iterations

     Forces acting on atoms (cartesian axes, Ry/au):

     atom    1 type  1   force =     0.00003665    0.00003665    0.00000000
     atom    2 type  1   force =     0.00000195    0.00000195    0.00000000
     atom    3 type  2   force =     0.00003160   -0.00003053    0.00000000
     atom    4 type  2   force =    -0.00003053    0.00003160    0.00000000
     atom    5 type  2   force =    -0.00005184   -0.00005184    0.00000000
     atom    6 type  2   force =     0.00001217    0.00001217    0.00000000

     Total force =     0.000111     Total SCF correction =     0.000002


     Computing stress (Cartesian axis) and pressure

          total   stress  (Ry/bohr**3)                   (kbar)     P=    0.09
   0.00000080   0.00108475   0.00000000          0.12    159.57      0.00
   0.00108475   0.00000080   0.00000000        159.57      0.12      0.00
   0.00000000   0.00000000   0.00000015          0.00      0.00      0.02


     number of scf cycles    =  50
     number of bfgs steps    =  45

     enthalpy old            =    -446.0695303835 Ry
     enthalpy new            =    -446.0695303844 Ry

     CASE: enthalpy_new < enthalpy_old

     Message from routine bfgs:
     history already reset at previous step: stopping
     small trust_radius: resetting bfgs history

     new trust radius        =       0.0000733167 bohr
     new conv_thr            =            9.5E-14 Ry

     new unit-cell volume =    337.36560 a.u.^3 (    49.99242 Ang^3 )
     density =     10.01178 g/cm^3

CELL_PARAMETERS (alat=  9.11000000)
   0.865720135   0.000000000   0.000000000
   0.000000000   0.865720135   0.000000000
   0.000000000   0.000000000   0.595375044

ATOMIC_POSITIONS (crystal)
Sn       0.023987786   0.023987786   0.000000000
Sn       0.529116060   0.529116060   0.500000000
O        0.755832595   0.152036906   0.500000000
O        0.152036906   0.755832595   0.500000000
O        0.322463972   0.322463972   0.000000000
O        0.714562682   0.714562682   0.000000000



     Writing output data file SnO2.save
     NEW-OLD atomic charge density approx. for the potential

     Check: negative/imaginary core charge=   -0.000300    0.000000
     extrapolated charge   52.00226, renormalised to   52.00000

     Writing output data file SnO2.save
 
     init_run     :     13.35s CPU     13.74s WALL (       1 calls)
     electrons    :  18659.94s CPU  19008.31s WALL (      50 calls)
     update_pot   :     43.11s CPU     43.49s WALL (      50 calls)
     forces       :    195.92s CPU    199.22s WALL (      50 calls)
     stress       :    465.12s CPU    469.36s WALL (      50 calls)

     Called by init_run:
     wfcinit      :     12.59s CPU     12.96s WALL (       1 calls)
     potinit      :      0.25s CPU      0.26s WALL (       1 calls)
     hinit0       :      0.47s CPU      0.48s WALL (       1 calls)

     Called by electrons:
     c_bands      :  16834.80s CPU  17150.08s WALL (     499 calls)
     sum_band     :   1816.58s CPU   1848.75s WALL (     499 calls)
     v_of_rho     :      7.34s CPU      7.43s WALL (     526 calls)
     mix_rho      :      1.46s CPU      1.59s WALL (     499 calls)

     Called by c_bands:
     init_us_2    :    295.67s CPU    314.83s WALL (  330799 calls)
     cegterg      :  15149.50s CPU  15450.30s WALL (  150199 calls)

     Called by sum_band:

     Called by *egterg:
     h_psi        :  11496.63s CPU  11832.61s WALL (  504749 calls)
     g_psi        :    112.46s CPU    113.95s WALL (  354249 calls)
     cdiaghg      :   1187.09s CPU   1163.29s WALL (  482475 calls)

     Called by h_psi:
     h_psi:pot    :  11437.21s CPU  11749.08s WALL (  504749 calls)
     h_psi:calbec :   1009.33s CPU    978.96s WALL (  504749 calls)
     vloc_psi     :   9657.59s CPU   9775.89s WALL (  504749 calls)
     add_vuspsi   :    768.81s CPU    990.65s WALL (  504749 calls)

     General routines
     calbec       :   1194.62s CPU   1137.18s WALL (  579999 calls)
     fft          :      4.53s CPU      4.88s WALL (    6586 calls)
     ffts         :      0.33s CPU      0.35s WALL (     499 calls)
     fftw         :  11032.11s CPU  10571.86s WALL (26003526 calls)
     davcio       :      0.00s CPU      0.12s WALL (     301 calls)
 
     Parallel routines
     fft_scatt_xy :    238.36s CPU    785.77s WALL (26010611 calls)
     fft_scatt_yz :   8081.89s CPU   2168.52s WALL (26010611 calls)
 
     PWSCF        :     5h23m CPU        5h29m WALL

 
   This run was terminated on:   6:12:49   9Apr2018            

=------------------------------------------------------------------------------=
   JOB DONE.
=------------------------------------------------------------------------------=
