
     Program PWSCF v.6.2.2 starts on 11Apr2018 at  7:27:17 

     This program is part of the open-source Quantum ESPRESSO suite
     for quantum simulation of materials; please cite
         "P. Giannozzi et al., J. Phys.:Condens. Matter 21 395502 (2009);
         "P. Giannozzi et al., J. Phys.:Condens. Matter 29 465901 (2017);
          URL http://www.quantum-espresso.org", 
     in publications or presentations arising from this work. More details at
     http://www.quantum-espresso.org/quote

     Parallel version (MPI), running on     2 processors

     MPI processes distributed on     1 nodes
     R & G space division:  proc/nbgrp/npool/nimage =       2
     Reading input from Conv_acell-ecut.in

     Current dimensions of program PWSCF are:
     Max number of different atomic species (ntypx) = 10
     Max number of k-points (npk) =  40000
     Max angular momentum in pseudopotentials (lmaxx) =  3

     Subspace diagonalization in iterative solution of the eigenvalue problem:
     a serial algorithm will be used

 
     Parallelization info
     --------------------
     sticks:   dense  smooth     PW     G-vecs:    dense   smooth      PW
     Min        1188    1188    340                29222    29222    4533
     Max        1189    1189    341                29223    29223    4534
     Sum        2377    2377    681                58445    58445    9067
 


     bravais-lattice index     =            6
     lattice parameter (alat)  =       9.1100  a.u.
     unit-cell volume          =     506.5589 (a.u.)^3
     number of atoms/cell      =            6
     number of atomic types    =            2
     number of electrons       =        52.00
     number of Kohn-Sham states=           26
     kinetic-energy cutoff     =      90.0000  Ry
     charge density cutoff     =     360.0000  Ry
     convergence threshold     =      1.0E-12
     mixing beta               =       0.7000
     number of iterations used =            8  plain     mixing
     Exchange-correlation      = PBE ( 1  4  3  4 0 0)
     nstep                     =           50


     celldm(1)=   9.110000  celldm(2)=   0.000000  celldm(3)=   0.670000
     celldm(4)=   0.000000  celldm(5)=   0.000000  celldm(6)=   0.000000

     crystal axes: (cart. coord. in units of alat)
               a(1) = (   1.000000   0.000000   0.000000 )  
               a(2) = (   0.000000   1.000000   0.000000 )  
               a(3) = (   0.000000   0.000000   0.670000 )  

     reciprocal axes: (cart. coord. in units 2 pi/alat)
               b(1) = (  1.000000  0.000000  0.000000 )  
               b(2) = (  0.000000  1.000000  0.000000 )  
               b(3) = (  0.000000  0.000000  1.492537 )  


     PseudoPot. # 1 for Sn read from file:
     ../../Pseudo_potentials/Sn_PBE.upf
     MD5 check sum: 78e6386ae56e929f0568ae8bf606a80c
     Pseudo is Norm-conserving + core correction, Zval = 14.0
     Generated using ONCVPSP code by D. R. Hamann
     Using radial grid of 1628 points,  6 beta functions with: 
                l(1) =   0
                l(2) =   0
                l(3) =   1
                l(4) =   1
                l(5) =   2
                l(6) =   2

     PseudoPot. # 2 for O  read from file:
     ../../Pseudo_potentials/O_PBE.upf
     MD5 check sum: 3e3f909f7470e8921608ab6b1f57bbae
     Pseudo is Norm-conserving + core correction, Zval =  6.0
     Generated using ONCVPSP code by D. R. Hamann
     Using radial grid of  936 points,  5 beta functions with: 
                l(1) =   0
                l(2) =   0
                l(3) =   1
                l(4) =   1
                l(5) =   2

     atomic species   valence    mass     pseudopotential
        Sn            14.00   118.71000     Sn( 1.00)
        O              6.00    15.99900     O ( 1.00)

      4 Sym. Ops. (no inversion) found



   Cartesian axes

     site n.     atom                  positions (alat units)
         1           Sn  tau(   1) = (   0.0000000   0.0000000   0.0000000  )
         2           Sn  tau(   2) = (   0.5000000   0.5000000   0.3350000  )
         3           O   tau(   3) = (   0.8060000   0.1930000   0.3350000  )
         4           O   tau(   4) = (   0.1930000   0.8060000   0.3350000  )
         5           O   tau(   5) = (   0.3060000   0.3060000   0.0000000  )
         6           O   tau(   6) = (   0.6930000   0.6930000   0.0000000  )

     number of k points=   301

     Number of k-points >= 100: set verbosity='high' to print them.

     Dense  grid:    58445 G-vectors     FFT dimensions: (  60,  60,  40)

     Estimated max dynamical RAM per process >     481.39 MB

     Estimated total dynamical RAM >     962.78 MB

     Initial potential from superposition of free atoms

     starting charge   51.99690, renormalised to   52.00000
     Starting wfc are   34 randomized atomic wfcs

     total cpu time spent up to now is       33.0 secs

     Self-consistent Calculation

     iteration #  1     ecut=    90.00 Ry     beta= 0.70
     Davidson diagonalization with overlap
     ethr =  1.00E-02,  avg # of iterations =  2.0

     total cpu time spent up to now is      103.6 secs

     total energy              =    -446.85023142 Ry
     Harris-Foulkes estimate   =    -448.03296526 Ry
     estimated scf accuracy    <       1.60547805 Ry

     iteration #  2     ecut=    90.00 Ry     beta= 0.70
     Davidson diagonalization with overlap
     ethr =  3.09E-03,  avg # of iterations =  3.1

     total cpu time spent up to now is      190.8 secs

     total energy              =    -447.26356144 Ry
     Harris-Foulkes estimate   =    -448.06249152 Ry
     estimated scf accuracy    <       1.64655008 Ry

     iteration #  3     ecut=    90.00 Ry     beta= 0.70
     Davidson diagonalization with overlap
     ethr =  3.09E-03,  avg # of iterations =  3.0

     total cpu time spent up to now is      273.5 secs

     total energy              =    -447.58663547 Ry
     Harris-Foulkes estimate   =    -447.58729338 Ry
     estimated scf accuracy    <       0.00602368 Ry

     iteration #  4     ecut=    90.00 Ry     beta= 0.70
     Davidson diagonalization with overlap
     ethr =  1.16E-05,  avg # of iterations =  3.0

     total cpu time spent up to now is      365.5 secs

     total energy              =    -447.58995189 Ry
     Harris-Foulkes estimate   =    -447.59021314 Ry
     estimated scf accuracy    <       0.00054981 Ry

     iteration #  5     ecut=    90.00 Ry     beta= 0.70
     Davidson diagonalization with overlap
     ethr =  1.06E-06,  avg # of iterations =  2.0

     total cpu time spent up to now is      433.6 secs

     total energy              =    -447.58998371 Ry
     Harris-Foulkes estimate   =    -447.58999842 Ry
     estimated scf accuracy    <       0.00004040 Ry

     iteration #  6     ecut=    90.00 Ry     beta= 0.70
     Davidson diagonalization with overlap
     ethr =  7.77E-08,  avg # of iterations =  3.2

     total cpu time spent up to now is      528.5 secs

     total energy              =    -447.59005833 Ry
     Harris-Foulkes estimate   =    -447.59006208 Ry
     estimated scf accuracy    <       0.00001032 Ry

     iteration #  7     ecut=    90.00 Ry     beta= 0.70
     Davidson diagonalization with overlap
     ethr =  1.99E-08,  avg # of iterations =  3.2

     total cpu time spent up to now is      610.9 secs

     total energy              =    -447.59005980 Ry
     Harris-Foulkes estimate   =    -447.59006089 Ry
     estimated scf accuracy    <       0.00000244 Ry

     iteration #  8     ecut=    90.00 Ry     beta= 0.70
     Davidson diagonalization with overlap
     ethr =  4.69E-09,  avg # of iterations =  3.0

     total cpu time spent up to now is      696.4 secs

     total energy              =    -447.59006043 Ry
     Harris-Foulkes estimate   =    -447.59006049 Ry
     estimated scf accuracy    <       0.00000014 Ry

     iteration #  9     ecut=    90.00 Ry     beta= 0.70
     Davidson diagonalization with overlap
     ethr =  2.72E-10,  avg # of iterations =  2.8

     total cpu time spent up to now is      777.6 secs

     total energy              =    -447.59006045 Ry
     Harris-Foulkes estimate   =    -447.59006046 Ry
     estimated scf accuracy    <       0.00000002 Ry

     iteration # 10     ecut=    90.00 Ry     beta= 0.70
     Davidson diagonalization with overlap
     ethr =  3.79E-11,  avg # of iterations =  3.0

     total cpu time spent up to now is      860.6 secs

     total energy              =    -447.59006045 Ry
     Harris-Foulkes estimate   =    -447.59006045 Ry
     estimated scf accuracy    <          2.1E-09 Ry

     iteration # 11     ecut=    90.00 Ry     beta= 0.70
     Davidson diagonalization with overlap
     ethr =  4.03E-12,  avg # of iterations =  3.1

     total cpu time spent up to now is      947.3 secs

     total energy              =    -447.59006045 Ry
     Harris-Foulkes estimate   =    -447.59006045 Ry
     estimated scf accuracy    <          9.2E-11 Ry

     iteration # 12     ecut=    90.00 Ry     beta= 0.70
     Davidson diagonalization with overlap
     ethr =  1.78E-13,  avg # of iterations =  3.0

     total cpu time spent up to now is     1039.2 secs

     total energy              =    -447.59006045 Ry
     Harris-Foulkes estimate   =    -447.59006045 Ry
     estimated scf accuracy    <          5.3E-12 Ry

     iteration # 13     ecut=    90.00 Ry     beta= 0.70
     Davidson diagonalization with overlap
     ethr =  1.00E-13,  avg # of iterations =  1.7

     total cpu time spent up to now is     1104.7 secs

     End of self-consistent calculation

     Number of k-points >= 100: set verbosity='high' to print the bands.

     highest occupied level (ev):     9.0669

!    total energy              =    -447.59006045 Ry
     Harris-Foulkes estimate   =    -447.59006045 Ry
     estimated scf accuracy    <          4.3E-13 Ry

     The total energy is the sum of the following terms:

     one-electron contribution =    -124.05170123 Ry
     hartree contribution      =     101.06781034 Ry
     xc contribution           =    -122.12483377 Ry
     ewald contribution        =    -302.48133580 Ry

     convergence has been achieved in  13 iterations

     Forces acting on atoms (cartesian axes, Ry/au):

     atom    1 type  1   force =    -0.00106795   -0.00106795    0.00000000
     atom    2 type  1   force =    -0.00135992   -0.00135992    0.00000000
     atom    3 type  2   force =    -0.00047651    0.00045057    0.00000000
     atom    4 type  2   force =     0.00045057   -0.00047651    0.00000000
     atom    5 type  2   force =     0.00076811    0.00076811    0.00000000
     atom    6 type  2   force =     0.00168570    0.00168570    0.00000000

     Total force =     0.003702     Total SCF correction =     0.000003


     Computing stress (Cartesian axis) and pressure

          total   stress  (Ry/bohr**3)                   (kbar)     P=   21.36
   0.00012061   0.00000011  -0.00000000         17.74      0.02     -0.00
   0.00000011   0.00012061   0.00000000          0.02     17.74      0.00
   0.00000000   0.00000000   0.00019440          0.00      0.00     28.60


     BFGS Geometry Optimization

     number of scf cycles    =   1
     number of bfgs steps    =   0

     enthalpy new            =    -447.5900604518 Ry

     new trust radius        =       0.0218764088 bohr
     new conv_thr            =            1.0E-12 Ry

     new unit-cell volume =    512.09506 a.u.^3 (    75.88466 Ang^3 )
     density =      6.59571 g/cm^3

CELL_PARAMETERS (alat=  9.11000000)
   1.003015302   0.000000000   0.000000000
   0.000000000   1.003015302   0.000000000
   0.000000000   0.000000000   0.673256161

ATOMIC_POSITIONS (crystal)
Sn      -0.000117228  -0.000117228   0.000000000
Sn       0.499850722   0.499850722   0.500000000
O        0.805947694   0.193049459   0.500000000
O        0.193049459   0.805947694   0.500000000
O        0.306084315   0.306084315   0.000000000
O        0.693185039   0.693185039   0.000000000



     Writing output data file SnO2.save
     NEW-OLD atomic charge density approx. for the potential
     extrapolated charge   52.56213, renormalised to   52.00000

     total cpu time spent up to now is     1135.7 secs

     Self-consistent Calculation

     iteration #  1     ecut=    90.00 Ry     beta= 0.70
     Davidson diagonalization with overlap
     ethr =  1.00E-06,  avg # of iterations =  4.2

     total cpu time spent up to now is     1263.9 secs

     total energy              =    -447.57348975 Ry
     Harris-Foulkes estimate   =    -446.34818383 Ry
     estimated scf accuracy    <       0.01049159 Ry

     iteration #  2     ecut=    90.00 Ry     beta= 0.70
     Davidson diagonalization with overlap
     ethr =  2.02E-05,  avg # of iterations =  4.0

     total cpu time spent up to now is     1373.2 secs

     total energy              =    -447.58952802 Ry
     Harris-Foulkes estimate   =    -447.59978203 Ry
     estimated scf accuracy    <       0.02810645 Ry

     iteration #  3     ecut=    90.00 Ry     beta= 0.70
     Davidson diagonalization with overlap
     ethr =  2.02E-05,  avg # of iterations =  2.0

     total cpu time spent up to now is     1454.5 secs

     total energy              =    -447.59106026 Ry
     Harris-Foulkes estimate   =    -447.59194657 Ry
     estimated scf accuracy    <       0.00357518 Ry

     iteration #  4     ecut=    90.00 Ry     beta= 0.70
     Davidson diagonalization with overlap
     ethr =  6.88E-06,  avg # of iterations =  1.0

     total cpu time spent up to now is     1519.5 secs

     total energy              =    -447.59043674 Ry
     Harris-Foulkes estimate   =    -447.59115043 Ry
     estimated scf accuracy    <       0.00191979 Ry

     iteration #  5     ecut=    90.00 Ry     beta= 0.70
     Davidson diagonalization with overlap
     ethr =  3.69E-06,  avg # of iterations =  2.0

     total cpu time spent up to now is     1592.3 secs

     total energy              =    -447.59045869 Ry
     Harris-Foulkes estimate   =    -447.59058799 Ry
     estimated scf accuracy    <       0.00028924 Ry

     iteration #  6     ecut=    90.00 Ry     beta= 0.70
     Davidson diagonalization with overlap
     ethr =  5.56E-07,  avg # of iterations =  3.0

     total cpu time spent up to now is     1674.4 secs

     total energy              =    -447.59049963 Ry
     Harris-Foulkes estimate   =    -447.59050384 Ry
     estimated scf accuracy    <       0.00001409 Ry

     iteration #  7     ecut=    90.00 Ry     beta= 0.70
     Davidson diagonalization with overlap
     ethr =  2.71E-08,  avg # of iterations =  2.0

     total cpu time spent up to now is     1746.3 secs

     total energy              =    -447.59049768 Ry
     Harris-Foulkes estimate   =    -447.59050063 Ry
     estimated scf accuracy    <       0.00000742 Ry

     iteration #  8     ecut=    90.00 Ry     beta= 0.70
     Davidson diagonalization with overlap
     ethr =  1.43E-08,  avg # of iterations =  1.9

     total cpu time spent up to now is     1813.5 secs

     total energy              =    -447.59049740 Ry
     Harris-Foulkes estimate   =    -447.59049817 Ry
     estimated scf accuracy    <       0.00000153 Ry

     iteration #  9     ecut=    90.00 Ry     beta= 0.70
     Davidson diagonalization with overlap
     ethr =  2.93E-09,  avg # of iterations =  2.1

     total cpu time spent up to now is     1899.5 secs

     total energy              =    -447.59049776 Ry
     Harris-Foulkes estimate   =    -447.59049776 Ry
     estimated scf accuracy    <          9.2E-09 Ry

     iteration # 10     ecut=    90.00 Ry     beta= 0.70
     Davidson diagonalization with overlap
     ethr =  1.76E-11,  avg # of iterations =  3.4

     total cpu time spent up to now is     1989.2 secs

     total energy              =    -447.59049776 Ry
     Harris-Foulkes estimate   =    -447.59049776 Ry
     estimated scf accuracy    <          7.1E-09 Ry

     iteration # 11     ecut=    90.00 Ry     beta= 0.70
     Davidson diagonalization with overlap
     ethr =  1.37E-11,  avg # of iterations =  2.0

     total cpu time spent up to now is     2058.3 secs

     total energy              =    -447.59049776 Ry
     Harris-Foulkes estimate   =    -447.59049776 Ry
     estimated scf accuracy    <          1.6E-09 Ry

     iteration # 12     ecut=    90.00 Ry     beta= 0.70
     Davidson diagonalization with overlap
     ethr =  3.04E-12,  avg # of iterations =  3.0

     total cpu time spent up to now is     2143.9 secs

     total energy              =    -447.59049776 Ry
     Harris-Foulkes estimate   =    -447.59049776 Ry
     estimated scf accuracy    <          4.4E-11 Ry

     iteration # 13     ecut=    90.00 Ry     beta= 0.70
     Davidson diagonalization with overlap
     ethr =  1.00E-13,  avg # of iterations =  2.0

     total cpu time spent up to now is     2217.7 secs

     total energy              =    -447.59049776 Ry
     Harris-Foulkes estimate   =    -447.59049776 Ry
     estimated scf accuracy    <          1.4E-11 Ry

     iteration # 14     ecut=    90.00 Ry     beta= 0.70
     Davidson diagonalization with overlap
     ethr =  1.00E-13,  avg # of iterations =  1.0

     total cpu time spent up to now is     2282.8 secs

     End of self-consistent calculation

     Number of k-points >= 100: set verbosity='high' to print the bands.

     highest occupied level (ev):     8.9095

!    total energy              =    -447.59049776 Ry
     Harris-Foulkes estimate   =    -447.59049776 Ry
     estimated scf accuracy    <          4.8E-13 Ry

     The total energy is the sum of the following terms:

     one-electron contribution =    -125.56170954 Ry
     hartree contribution      =     101.49655251 Ry
     xc contribution           =    -122.07400127 Ry
     ewald contribution        =    -301.45133946 Ry

     convergence has been achieved in  14 iterations

     Forces acting on atoms (cartesian axes, Ry/au):

     atom    1 type  1   force =    -0.00059830   -0.00059830    0.00000000
     atom    2 type  1   force =    -0.00047102   -0.00047102    0.00000000
     atom    3 type  2   force =     0.00098343   -0.00081207   -0.00000000
     atom    4 type  2   force =    -0.00081207    0.00098343    0.00000000
     atom    5 type  2   force =     0.00134516    0.00134516    0.00000000
     atom    6 type  2   force =    -0.00044720   -0.00044720    0.00000000

     Total force =     0.002904     Total SCF correction =     0.000001


     Computing stress (Cartesian axis) and pressure

          total   stress  (Ry/bohr**3)                   (kbar)     P=    0.41
   0.00000098   0.00000003   0.00000000          0.14      0.00      0.00
   0.00000003   0.00000098   0.00000000          0.00      0.14      0.00
   0.00000000   0.00000000   0.00000644          0.00      0.00      0.95


     number of scf cycles    =   2
     number of bfgs steps    =   1

     enthalpy old            =    -447.5900604518 Ry
     enthalpy new            =    -447.5904977572 Ry

     CASE: enthalpy_new < enthalpy_old

     new trust radius        =       0.0019716751 bohr
     new conv_thr            =            1.0E-12 Ry

     new unit-cell volume =    512.26330 a.u.^3 (    75.90959 Ang^3 )
     density =      6.59354 g/cm^3

CELL_PARAMETERS (alat=  9.11000000)
   1.003071963   0.000000000   0.000000000
   0.000000000   1.003071963   0.000000000
   0.000000000   0.000000000   0.673401263

ATOMIC_POSITIONS (crystal)
Sn      -0.000185923  -0.000185923   0.000000000
Sn       0.499796046   0.499796046   0.500000000
O        0.806058054   0.192958394   0.500000000
O        0.192958394   0.806058054   0.500000000
O        0.306236894   0.306236894   0.000000000
O        0.693136535   0.693136535   0.000000000



     Writing output data file SnO2.save
     NEW-OLD atomic charge density approx. for the potential
     extrapolated charge   52.01708, renormalised to   52.00000

     total cpu time spent up to now is     2313.6 secs

     Self-consistent Calculation

     iteration #  1     ecut=    90.00 Ry     beta= 0.70
     Davidson diagonalization with overlap
     ethr =  1.00E-06,  avg # of iterations =  3.0

     Threshold (ethr) on eigenvalues was too large:
     Diagonalizing with lowered threshold

     Davidson diagonalization with overlap
     ethr =  1.66E-08,  avg # of iterations =  2.0

     total cpu time spent up to now is     2482.1 secs

     total energy              =    -447.59049033 Ry
     Harris-Foulkes estimate   =    -447.55279977 Ry
     estimated scf accuracy    <       0.00000930 Ry

     iteration #  2     ecut=    90.00 Ry     beta= 0.70
     Davidson diagonalization with overlap
     ethr =  1.79E-08,  avg # of iterations =  4.0

     total cpu time spent up to now is     2590.8 secs

     total energy              =    -447.59050426 Ry
     Harris-Foulkes estimate   =    -447.59051307 Ry
     estimated scf accuracy    <       0.00002411 Ry

     iteration #  3     ecut=    90.00 Ry     beta= 0.70
     Davidson diagonalization with overlap
     ethr =  1.79E-08,  avg # of iterations =  2.0

     total cpu time spent up to now is     2672.3 secs

     total energy              =    -447.59050546 Ry
     Harris-Foulkes estimate   =    -447.59050634 Ry
     estimated scf accuracy    <       0.00000308 Ry

     iteration #  4     ecut=    90.00 Ry     beta= 0.70
     Davidson diagonalization with overlap
     ethr =  5.93E-09,  avg # of iterations =  1.0

     total cpu time spent up to now is     2737.6 secs

     total energy              =    -447.59050477 Ry
     Harris-Foulkes estimate   =    -447.59050557 Ry
     estimated scf accuracy    <       0.00000147 Ry

     iteration #  5     ecut=    90.00 Ry     beta= 0.70
     Davidson diagonalization with overlap
     ethr =  2.83E-09,  avg # of iterations =  2.0

     total cpu time spent up to now is     2828.5 secs

     total energy              =    -447.59050508 Ry
     Harris-Foulkes estimate   =    -447.59050508 Ry
     estimated scf accuracy    <          4.3E-09 Ry

     iteration #  6     ecut=    90.00 Ry     beta= 0.70
     Davidson diagonalization with overlap
     ethr =  8.23E-12,  avg # of iterations =  4.1

     total cpu time spent up to now is     2935.7 secs

     total energy              =    -447.59050508 Ry
     Harris-Foulkes estimate   =    -447.59050508 Ry
     estimated scf accuracy    <          1.1E-09 Ry

     iteration #  7     ecut=    90.00 Ry     beta= 0.70
     Davidson diagonalization with overlap
     ethr =  2.19E-12,  avg # of iterations =  3.0

     total cpu time spent up to now is     3019.6 secs

     total energy              =    -447.59050508 Ry
     Harris-Foulkes estimate   =    -447.59050508 Ry
     estimated scf accuracy    <          2.7E-10 Ry

     iteration #  8     ecut=    90.00 Ry     beta= 0.70
     Davidson diagonalization with overlap
     ethr =  5.19E-13,  avg # of iterations =  3.0

     total cpu time spent up to now is     3102.4 secs

     total energy              =    -447.59050508 Ry
     Harris-Foulkes estimate   =    -447.59050508 Ry
     estimated scf accuracy    <          1.5E-10 Ry

     iteration #  9     ecut=    90.00 Ry     beta= 0.70
     Davidson diagonalization with overlap
     ethr =  2.83E-13,  avg # of iterations =  2.6

     total cpu time spent up to now is     3182.1 secs

     total energy              =    -447.59050508 Ry
     Harris-Foulkes estimate   =    -447.59050508 Ry
     estimated scf accuracy    <          1.7E-12 Ry

     iteration # 10     ecut=    90.00 Ry     beta= 0.70
     Davidson diagonalization with overlap
     ethr =  1.00E-13,  avg # of iterations =  1.0

     total cpu time spent up to now is     3247.0 secs

     End of self-consistent calculation

     Number of k-points >= 100: set verbosity='high' to print the bands.

     highest occupied level (ev):     8.9044

!    total energy              =    -447.59050508 Ry
     Harris-Foulkes estimate   =    -447.59050508 Ry
     estimated scf accuracy    <          3.7E-13 Ry

     The total energy is the sum of the following terms:

     one-electron contribution =    -125.62406438 Ry
     hartree contribution      =     101.51859107 Ry
     xc contribution           =    -122.07278204 Ry
     ewald contribution        =    -301.41224973 Ry

     convergence has been achieved in  10 iterations

     Forces acting on atoms (cartesian axes, Ry/au):

     atom    1 type  1   force =    -0.00033735   -0.00033735    0.00000000
     atom    2 type  1   force =    -0.00020371   -0.00020371    0.00000000
     atom    3 type  2   force =     0.00066654   -0.00044570    0.00000000
     atom    4 type  2   force =    -0.00044570    0.00066654    0.00000000
     atom    5 type  2   force =     0.00071464    0.00071464    0.00000000
     atom    6 type  2   force =    -0.00039443   -0.00039443    0.00000000

     Total force =     0.001711     Total SCF correction =     0.000001


     Computing stress (Cartesian axis) and pressure

          total   stress  (Ry/bohr**3)                   (kbar)     P=   -0.04
  -0.00000140   0.00000001   0.00000000         -0.21      0.00      0.00
   0.00000001  -0.00000140   0.00000000          0.00     -0.21      0.00
   0.00000000   0.00000000   0.00000192          0.00      0.00      0.28


     number of scf cycles    =   3
     number of bfgs steps    =   2

     enthalpy old            =    -447.5904977572 Ry
     enthalpy new            =    -447.5905050839 Ry

     CASE: enthalpy_new < enthalpy_old

     new trust radius        =       0.0021689652 bohr
     new conv_thr            =            1.0E-12 Ry

     new unit-cell volume =    512.32205 a.u.^3 (    75.91829 Ang^3 )
     density =      6.59279 g/cm^3

CELL_PARAMETERS (alat=  9.11000000)
   1.003044350   0.000000000   0.000000000
   0.000000000   1.003044350   0.000000000
   0.000000000   0.000000000   0.673515584

ATOMIC_POSITIONS (crystal)
Sn      -0.000265733  -0.000265733   0.000000000
Sn       0.499745679   0.499745679   0.500000000
O        0.806210016   0.192855298   0.500000000
O        0.192855298   0.806210016   0.500000000
O        0.306404731   0.306404731   0.000000000
O        0.693050009   0.693050009   0.000000000



     Writing output data file SnO2.save
     NEW-OLD atomic charge density approx. for the potential
     extrapolated charge   52.00596, renormalised to   52.00000

     total cpu time spent up to now is     3277.6 secs

     Self-consistent Calculation

     iteration #  1     ecut=    90.00 Ry     beta= 0.70
     Davidson diagonalization with overlap
     ethr =  1.00E-06,  avg # of iterations =  3.0

     Threshold (ethr) on eigenvalues was too large:
     Diagonalizing with lowered threshold

     Davidson diagonalization with overlap
     ethr =  3.94E-09,  avg # of iterations =  3.0

     total cpu time spent up to now is     3463.4 secs

     total energy              =    -447.59050692 Ry
     Harris-Foulkes estimate   =    -447.57733948 Ry
     estimated scf accuracy    <       0.00000228 Ry

     iteration #  2     ecut=    90.00 Ry     beta= 0.70
     Davidson diagonalization with overlap
     ethr =  4.39E-09,  avg # of iterations =  3.7

     total cpu time spent up to now is     3567.4 secs

     total energy              =    -447.59050849 Ry
     Harris-Foulkes estimate   =    -447.59050977 Ry
     estimated scf accuracy    <       0.00000299 Ry

     iteration #  3     ecut=    90.00 Ry     beta= 0.70
     Davidson diagonalization with overlap
     ethr =  4.39E-09,  avg # of iterations =  2.0

     total cpu time spent up to now is     3648.7 secs

     total energy              =    -447.59050878 Ry
     Harris-Foulkes estimate   =    -447.59050888 Ry
     estimated scf accuracy    <       0.00000019 Ry

     iteration #  4     ecut=    90.00 Ry     beta= 0.70
     Davidson diagonalization with overlap
     ethr =  3.62E-10,  avg # of iterations =  2.0

     total cpu time spent up to now is     3726.9 secs

     total energy              =    -447.59050879 Ry
     Harris-Foulkes estimate   =    -447.59050881 Ry
     estimated scf accuracy    <       0.00000004 Ry

     iteration #  5     ecut=    90.00 Ry     beta= 0.70
     Davidson diagonalization with overlap
     ethr =  7.75E-11,  avg # of iterations =  2.2

     total cpu time spent up to now is     3808.4 secs

     total energy              =    -447.59050879 Ry
     Harris-Foulkes estimate   =    -447.59050880 Ry
     estimated scf accuracy    <          5.8E-10 Ry

     iteration #  6     ecut=    90.00 Ry     beta= 0.70
     Davidson diagonalization with overlap
     ethr =  1.11E-12,  avg # of iterations =  3.5

     total cpu time spent up to now is     3911.4 secs

     total energy              =    -447.59050879 Ry
     Harris-Foulkes estimate   =    -447.59050880 Ry
     estimated scf accuracy    <          5.8E-10 Ry

     iteration #  7     ecut=    90.00 Ry     beta= 0.70
     Davidson diagonalization with overlap
     ethr =  1.11E-12,  avg # of iterations =  3.2

     total cpu time spent up to now is     3995.1 secs

     total energy              =    -447.59050880 Ry
     Harris-Foulkes estimate   =    -447.59050880 Ry
     estimated scf accuracy    <          5.7E-11 Ry

     iteration #  8     ecut=    90.00 Ry     beta= 0.70
     Davidson diagonalization with overlap
     ethr =  1.09E-13,  avg # of iterations =  2.3

     total cpu time spent up to now is     4072.4 secs

     total energy              =    -447.59050880 Ry
     Harris-Foulkes estimate   =    -447.59050880 Ry
     estimated scf accuracy    <          5.5E-12 Ry

     iteration #  9     ecut=    90.00 Ry     beta= 0.70
     Davidson diagonalization with overlap
     ethr =  1.00E-13,  avg # of iterations =  1.0

     total cpu time spent up to now is     4137.5 secs

     End of self-consistent calculation

     Number of k-points >= 100: set verbosity='high' to print the bands.

     highest occupied level (ev):     8.9023

!    total energy              =    -447.59050880 Ry
     Harris-Foulkes estimate   =    -447.59050880 Ry
     estimated scf accuracy    <          5.0E-13 Ry

     The total energy is the sum of the following terms:

     one-electron contribution =    -125.65826993 Ry
     hartree contribution      =     101.53316254 Ry
     xc contribution           =    -122.07259794 Ry
     ewald contribution        =    -301.39280346 Ry

     convergence has been achieved in   9 iterations

     Forces acting on atoms (cartesian axes, Ry/au):

     atom    1 type  1   force =    -0.00004961   -0.00004961    0.00000000
     atom    2 type  1   force =    -0.00000893   -0.00000893    0.00000000
     atom    3 type  2   force =     0.00021203    0.00002191    0.00000000
     atom    4 type  2   force =     0.00002191    0.00021203    0.00000000
     atom    5 type  2   force =     0.00000735    0.00000735    0.00000000
     atom    6 type  2   force =    -0.00018275   -0.00018275    0.00000000

     Total force =     0.000404     Total SCF correction =     0.000001


     Computing stress (Cartesian axis) and pressure

          total   stress  (Ry/bohr**3)                   (kbar)     P=   -0.07
  -0.00000107   0.00000000  -0.00000000         -0.16      0.00     -0.00
   0.00000000  -0.00000107   0.00000000          0.00     -0.16      0.00
   0.00000000   0.00000000   0.00000071          0.00      0.00      0.10


     number of scf cycles    =   4
     number of bfgs steps    =   3

     enthalpy old            =    -447.5905050839 Ry
     enthalpy new            =    -447.5905087951 Ry

     CASE: enthalpy_new < enthalpy_old

     new trust radius        =       0.0004327557 bohr
     new conv_thr            =            1.0E-12 Ry

     new unit-cell volume =    512.31714 a.u.^3 (    75.91757 Ang^3 )
     density =      6.59285 g/cm^3

CELL_PARAMETERS (alat=  9.11000000)
   1.003014838   0.000000000   0.000000000
   0.000000000   1.003014838   0.000000000
   0.000000000   0.000000000   0.673548754

ATOMIC_POSITIONS (crystal)
Sn      -0.000282151  -0.000282151   0.000000000
Sn       0.499737776   0.499737776   0.500000000
O        0.806255703   0.192845503   0.500000000
O        0.192845503   0.806255703   0.500000000
O        0.306426648   0.306426648   0.000000000
O        0.693016521   0.693016521   0.000000000



     Writing output data file SnO2.save
     NEW-OLD atomic charge density approx. for the potential
     extrapolated charge   51.99950, renormalised to   52.00000

     total cpu time spent up to now is     4168.2 secs

     Self-consistent Calculation

     iteration #  1     ecut=    90.00 Ry     beta= 0.70
     Davidson diagonalization with overlap
     ethr =  1.00E-06,  avg # of iterations =  2.0

     Threshold (ethr) on eigenvalues was too large:
     Diagonalizing with lowered threshold

     Davidson diagonalization with overlap
     ethr =  2.52E-10,  avg # of iterations =  3.6

     total cpu time spent up to now is     4355.7 secs

     total energy              =    -447.59050899 Ry
     Harris-Foulkes estimate   =    -447.59161123 Ry
     estimated scf accuracy    <       0.00000010 Ry

     iteration #  2     ecut=    90.00 Ry     beta= 0.70
     Davidson diagonalization with overlap
     ethr =  2.00E-10,  avg # of iterations =  2.2

     total cpu time spent up to now is     4446.2 secs

     total energy              =    -447.59050902 Ry
     Harris-Foulkes estimate   =    -447.59050903 Ry
     estimated scf accuracy    <       0.00000003 Ry

     iteration #  3     ecut=    90.00 Ry     beta= 0.70
     Davidson diagonalization with overlap
     ethr =  5.17E-11,  avg # of iterations =  2.3

     total cpu time spent up to now is     4528.5 secs

     total energy              =    -447.59050902 Ry
     Harris-Foulkes estimate   =    -447.59050903 Ry
     estimated scf accuracy    <          3.2E-09 Ry

     iteration #  4     ecut=    90.00 Ry     beta= 0.70
     Davidson diagonalization with overlap
     ethr =  6.16E-12,  avg # of iterations =  3.1

     total cpu time spent up to now is     4624.4 secs

     total energy              =    -447.59050903 Ry
     Harris-Foulkes estimate   =    -447.59050903 Ry
     estimated scf accuracy    <          9.0E-10 Ry

     iteration #  5     ecut=    90.00 Ry     beta= 0.70
     Davidson diagonalization with overlap
     ethr =  1.72E-12,  avg # of iterations =  3.5

     total cpu time spent up to now is     4712.1 secs

     total energy              =    -447.59050903 Ry
     Harris-Foulkes estimate   =    -447.59050903 Ry
     estimated scf accuracy    <          2.9E-10 Ry

     iteration #  6     ecut=    90.00 Ry     beta= 0.70
     Davidson diagonalization with overlap
     ethr =  5.63E-13,  avg # of iterations =  3.0

     total cpu time spent up to now is     4794.6 secs

     total energy              =    -447.59050903 Ry
     Harris-Foulkes estimate   =    -447.59050903 Ry
     estimated scf accuracy    <          5.0E-12 Ry

     iteration #  7     ecut=    90.00 Ry     beta= 0.70
     Davidson diagonalization with overlap
     ethr =  1.00E-13,  avg # of iterations =  1.2

     total cpu time spent up to now is     4860.7 secs

     End of self-consistent calculation

     Number of k-points >= 100: set verbosity='high' to print the bands.

     highest occupied level (ev):     8.9024

!    total energy              =    -447.59050903 Ry
     Harris-Foulkes estimate   =    -447.59050903 Ry
     estimated scf accuracy    <          9.7E-13 Ry

     The total energy is the sum of the following terms:

     one-electron contribution =    -125.65842465 Ry
     hartree contribution      =     101.53376547 Ry
     xc contribution           =    -122.07268376 Ry
     ewald contribution        =    -301.39316609 Ry

     convergence has been achieved in   7 iterations

     Forces acting on atoms (cartesian axes, Ry/au):

     atom    1 type  1   force =    -0.00000744   -0.00000744    0.00000000
     atom    2 type  1   force =    -0.00002467   -0.00002467    0.00000000
     atom    3 type  2   force =     0.00009464    0.00010813    0.00000000
     atom    4 type  2   force =     0.00010813    0.00009464    0.00000000
     atom    5 type  2   force =    -0.00009174   -0.00009174    0.00000000
     atom    6 type  2   force =    -0.00007892   -0.00007892    0.00000000

     Total force =     0.000268     Total SCF correction =     0.000004


     Computing stress (Cartesian axis) and pressure

          total   stress  (Ry/bohr**3)                   (kbar)     P=   -0.03
  -0.00000054  -0.00000000   0.00000000         -0.08     -0.00      0.00
  -0.00000000  -0.00000054  -0.00000000         -0.00     -0.08     -0.00
   0.00000000   0.00000000   0.00000054          0.00      0.00      0.08


     number of scf cycles    =   5
     number of bfgs steps    =   4

     enthalpy old            =    -447.5905087951 Ry
     enthalpy new            =    -447.5905090255 Ry

     CASE: enthalpy_new < enthalpy_old

     new trust radius        =       0.0003043049 bohr
     new conv_thr            =            1.0E-12 Ry

     new unit-cell volume =    512.30870 a.u.^3 (    75.91632 Ang^3 )
     density =      6.59296 g/cm^3

CELL_PARAMETERS (alat=  9.11000000)
   1.002987421   0.000000000   0.000000000
   0.000000000   1.002987421   0.000000000
   0.000000000   0.000000000   0.673574490

ATOMIC_POSITIONS (crystal)
Sn      -0.000289856  -0.000289856   0.000000000
Sn       0.499730241   0.499730241   0.500000000
O        0.806286834   0.192857332   0.500000000
O        0.192857332   0.806286834   0.500000000
O        0.306422474   0.306422474   0.000000000
O        0.692992974   0.692992974   0.000000000



     Writing output data file SnO2.save
     NEW-OLD atomic charge density approx. for the potential
     extrapolated charge   51.99914, renormalised to   52.00000

     total cpu time spent up to now is     4891.6 secs

     Self-consistent Calculation

     iteration #  1     ecut=    90.00 Ry     beta= 0.70
     Davidson diagonalization with overlap
     ethr =  1.00E-06,  avg # of iterations =  1.8

     Threshold (ethr) on eigenvalues was too large:
     Diagonalizing with lowered threshold

     Davidson diagonalization with overlap
     ethr =  3.54E-10,  avg # of iterations =  3.5

     total cpu time spent up to now is     5069.9 secs

     total energy              =    -447.59050909 Ry
     Harris-Foulkes estimate   =    -447.59239929 Ry
     estimated scf accuracy    <       0.00000006 Ry

     iteration #  2     ecut=    90.00 Ry     beta= 0.70
     Davidson diagonalization with overlap
     ethr =  1.22E-10,  avg # of iterations =  3.0

     total cpu time spent up to now is     5171.3 secs

     total energy              =    -447.59050913 Ry
     Harris-Foulkes estimate   =    -447.59050916 Ry
     estimated scf accuracy    <       0.00000007 Ry

     iteration #  3     ecut=    90.00 Ry     beta= 0.70
     Davidson diagonalization with overlap
     ethr =  1.22E-10,  avg # of iterations =  2.0

     total cpu time spent up to now is     5252.2 secs

     total energy              =    -447.59050914 Ry
     Harris-Foulkes estimate   =    -447.59050914 Ry
     estimated scf accuracy    <          3.8E-09 Ry

     iteration #  4     ecut=    90.00 Ry     beta= 0.70
     Davidson diagonalization with overlap
     ethr =  7.28E-12,  avg # of iterations =  2.8

     total cpu time spent up to now is     5342.4 secs

     total energy              =    -447.59050914 Ry
     Harris-Foulkes estimate   =    -447.59050914 Ry
     estimated scf accuracy    <          1.6E-09 Ry

     iteration #  5     ecut=    90.00 Ry     beta= 0.70
     Davidson diagonalization with overlap
     ethr =  3.00E-12,  avg # of iterations =  3.1

     total cpu time spent up to now is     5427.6 secs

     total energy              =    -447.59050914 Ry
     Harris-Foulkes estimate   =    -447.59050914 Ry
     estimated scf accuracy    <          4.8E-10 Ry

     iteration #  6     ecut=    90.00 Ry     beta= 0.70
     Davidson diagonalization with overlap
     ethr =  9.16E-13,  avg # of iterations =  2.9

     total cpu time spent up to now is     5509.6 secs

     total energy              =    -447.59050914 Ry
     Harris-Foulkes estimate   =    -447.59050914 Ry
     estimated scf accuracy    <          5.7E-12 Ry

     iteration #  7     ecut=    90.00 Ry     beta= 0.70
     Davidson diagonalization with overlap
     ethr =  1.00E-13,  avg # of iterations =  1.7

     total cpu time spent up to now is     5577.2 secs

     total energy              =    -447.59050914 Ry
     Harris-Foulkes estimate   =    -447.59050914 Ry
     estimated scf accuracy    <          1.1E-12 Ry

     iteration #  8     ecut=    90.00 Ry     beta= 0.70
     Davidson diagonalization with overlap
     ethr =  1.00E-13,  avg # of iterations =  1.0

     total cpu time spent up to now is     5642.0 secs

     End of self-consistent calculation

     Number of k-points >= 100: set verbosity='high' to print the bands.

     highest occupied level (ev):     8.9026

!    total energy              =    -447.59050914 Ry
     Harris-Foulkes estimate   =    -447.59050914 Ry
     estimated scf accuracy    <          6.7E-14 Ry

     The total energy is the sum of the following terms:

     one-electron contribution =    -125.65424449 Ry
     hartree contribution      =     101.53229443 Ry
     xc contribution           =    -122.07274091 Ry
     ewald contribution        =    -301.39581817 Ry

     convergence has been achieved in   8 iterations

     Forces acting on atoms (cartesian axes, Ry/au):

     atom    1 type  1   force =    -0.00000876   -0.00000876    0.00000000
     atom    2 type  1   force =    -0.00005226   -0.00005226    0.00000000
     atom    3 type  2   force =     0.00003861    0.00012064    0.00000000
     atom    4 type  2   force =     0.00012064    0.00003861    0.00000000
     atom    5 type  2   force =    -0.00009005   -0.00009005    0.00000000
     atom    6 type  2   force =    -0.00000818   -0.00000818    0.00000000

     Total force =     0.000233     Total SCF correction =     0.000001


     Computing stress (Cartesian axis) and pressure

          total   stress  (Ry/bohr**3)                   (kbar)     P=   -0.00
  -0.00000014   0.00000000   0.00000000         -0.02      0.00      0.00
   0.00000000  -0.00000014   0.00000000          0.00     -0.02      0.00
   0.00000000   0.00000000   0.00000024          0.00      0.00      0.04


     number of scf cycles    =   6
     number of bfgs steps    =   5

     enthalpy old            =    -447.5905090255 Ry
     enthalpy new            =    -447.5905091374 Ry

     CASE: enthalpy_new < enthalpy_old

     new trust radius        =       0.0003347262 bohr
     new conv_thr            =            1.0E-12 Ry

     new unit-cell volume =    512.29990 a.u.^3 (    75.91501 Ang^3 )
     density =      6.59307 g/cm^3

CELL_PARAMETERS (alat=  9.11000000)
   1.002962927   0.000000000   0.000000000
   0.000000000   1.002962927   0.000000000
   0.000000000   0.000000000   0.673595814

ATOMIC_POSITIONS (crystal)
Sn      -0.000296860  -0.000296860   0.000000000
Sn       0.499717703   0.499717703   0.500000000
O        0.806314291   0.192881583   0.500000000
O        0.192881583   0.806314291   0.500000000
O        0.306408021   0.306408021   0.000000000
O        0.692975262   0.692975262   0.000000000



     Writing output data file SnO2.save
     NEW-OLD atomic charge density approx. for the potential
     extrapolated charge   51.99911, renormalised to   52.00000

     total cpu time spent up to now is     5672.6 secs

     Self-consistent Calculation

     iteration #  1     ecut=    90.00 Ry     beta= 0.70
     Davidson diagonalization with overlap
     ethr =  1.00E-06,  avg # of iterations =  2.0

     Threshold (ethr) on eigenvalues was too large:
     Diagonalizing with lowered threshold

     Davidson diagonalization with overlap
     ethr =  5.16E-10,  avg # of iterations =  3.2

     total cpu time spent up to now is     5849.3 secs

     total energy              =    -447.59050918 Ry
     Harris-Foulkes estimate   =    -447.59248245 Ry
     estimated scf accuracy    <       0.00000006 Ry

     iteration #  2     ecut=    90.00 Ry     beta= 0.70
     Davidson diagonalization with overlap
     ethr =  1.19E-10,  avg # of iterations =  3.1

     total cpu time spent up to now is     5951.1 secs

     total energy              =    -447.59050922 Ry
     Harris-Foulkes estimate   =    -447.59050925 Ry
     estimated scf accuracy    <       0.00000007 Ry

     iteration #  3     ecut=    90.00 Ry     beta= 0.70
     Davidson diagonalization with overlap
     ethr =  1.19E-10,  avg # of iterations =  2.0

     total cpu time spent up to now is     6032.3 secs

     total energy              =    -447.59050923 Ry
     Harris-Foulkes estimate   =    -447.59050923 Ry
     estimated scf accuracy    <          4.1E-09 Ry

     iteration #  4     ecut=    90.00 Ry     beta= 0.70
     Davidson diagonalization with overlap
     ethr =  7.94E-12,  avg # of iterations =  2.3

     total cpu time spent up to now is     6119.6 secs

     total energy              =    -447.59050923 Ry
     Harris-Foulkes estimate   =    -447.59050923 Ry
     estimated scf accuracy    <          1.3E-09 Ry

     iteration #  5     ecut=    90.00 Ry     beta= 0.70
     Davidson diagonalization with overlap
     ethr =  2.57E-12,  avg # of iterations =  3.1

     total cpu time spent up to now is     6206.0 secs

     total energy              =    -447.59050923 Ry
     Harris-Foulkes estimate   =    -447.59050923 Ry
     estimated scf accuracy    <          4.0E-10 Ry

     iteration #  6     ecut=    90.00 Ry     beta= 0.70
     Davidson diagonalization with overlap
     ethr =  7.65E-13,  avg # of iterations =  3.0

     total cpu time spent up to now is     6289.1 secs

     total energy              =    -447.59050923 Ry
     Harris-Foulkes estimate   =    -447.59050923 Ry
     estimated scf accuracy    <          8.4E-12 Ry

     iteration #  7     ecut=    90.00 Ry     beta= 0.70
     Davidson diagonalization with overlap
     ethr =  1.00E-13,  avg # of iterations =  1.6

     total cpu time spent up to now is     6356.5 secs

     End of self-consistent calculation

     Number of k-points >= 100: set verbosity='high' to print the bands.

     highest occupied level (ev):     8.9029

!    total energy              =    -447.59050923 Ry
     Harris-Foulkes estimate   =    -447.59050923 Ry
     estimated scf accuracy    <          8.5E-13 Ry

     The total energy is the sum of the following terms:

     one-electron contribution =    -125.64869727 Ry
     hartree contribution      =     101.53010759 Ry
     xc contribution           =    -122.07277817 Ry
     ewald contribution        =    -301.39914138 Ry

     convergence has been achieved in   7 iterations

     Forces acting on atoms (cartesian axes, Ry/au):

     atom    1 type  1   force =    -0.00002587   -0.00002587    0.00000000
     atom    2 type  1   force =    -0.00006407   -0.00006407    0.00000000
     atom    3 type  2   force =     0.00000943    0.00010043    0.00000000
     atom    4 type  2   force =     0.00010043    0.00000943    0.00000000
     atom    5 type  2   force =    -0.00005551   -0.00005551    0.00000000
     atom    6 type  2   force =     0.00003559    0.00003559    0.00000000

     Total force =     0.000196     Total SCF correction =     0.000005


     Computing stress (Cartesian axis) and pressure

          total   stress  (Ry/bohr**3)                   (kbar)     P=    0.01
   0.00000018  -0.00000000   0.00000000          0.03     -0.00      0.00
  -0.00000000   0.00000018   0.00000000         -0.00      0.03      0.00
   0.00000000   0.00000000  -0.00000011          0.00      0.00     -0.02


     number of scf cycles    =   7
     number of bfgs steps    =   6

     enthalpy old            =    -447.5905091374 Ry
     enthalpy new            =    -447.5905092292 Ry

     CASE: enthalpy_new < enthalpy_old

     new trust radius        =       0.0004955616 bohr
     new conv_thr            =            1.0E-12 Ry

     new unit-cell volume =    512.29045 a.u.^3 (    75.91361 Ang^3 )
     density =      6.59319 g/cm^3

CELL_PARAMETERS (alat=  9.11000000)
   1.002940313   0.000000000   0.000000000
   0.000000000   1.002940313   0.000000000
   0.000000000   0.000000000   0.673613760

ATOMIC_POSITIONS (crystal)
Sn      -0.000309869  -0.000309869   0.000000000
Sn       0.499694013   0.499694013   0.500000000
O        0.806347663   0.192924337   0.500000000
O        0.192924337   0.806347663   0.500000000
O        0.306383642   0.306383642   0.000000000
O        0.692960214   0.692960214   0.000000000



     Writing output data file SnO2.save
     NEW-OLD atomic charge density approx. for the potential
     extrapolated charge   51.99904, renormalised to   52.00000

     total cpu time spent up to now is     6387.5 secs

     Self-consistent Calculation

     iteration #  1     ecut=    90.00 Ry     beta= 0.70
     Davidson diagonalization with overlap
     ethr =  1.00E-06,  avg # of iterations =  2.0

     Threshold (ethr) on eigenvalues was too large:
     Diagonalizing with lowered threshold

     Davidson diagonalization with overlap
     ethr =  1.10E-10,  avg # of iterations =  4.2

     total cpu time spent up to now is     6578.0 secs

     total energy              =    -447.59050925 Ry
     Harris-Foulkes estimate   =    -447.59262821 Ry
     estimated scf accuracy    <       0.00000010 Ry

     iteration #  2     ecut=    90.00 Ry     beta= 0.70
     Davidson diagonalization with overlap
     ethr =  1.89E-10,  avg # of iterations =  3.0

     total cpu time spent up to now is     6676.9 secs

     total energy              =    -447.59050930 Ry
     Harris-Foulkes estimate   =    -447.59050934 Ry
     estimated scf accuracy    <       0.00000008 Ry

     iteration #  3     ecut=    90.00 Ry     beta= 0.70
     Davidson diagonalization with overlap
     ethr =  1.53E-10,  avg # of iterations =  2.0

     total cpu time spent up to now is     6757.8 secs

     total energy              =    -447.59050931 Ry
     Harris-Foulkes estimate   =    -447.59050931 Ry
     estimated scf accuracy    <          4.0E-09 Ry

     iteration #  4     ecut=    90.00 Ry     beta= 0.70
     Davidson diagonalization with overlap
     ethr =  7.78E-12,  avg # of iterations =  3.0

     total cpu time spent up to now is     6851.4 secs

     total energy              =    -447.59050931 Ry
     Harris-Foulkes estimate   =    -447.59050931 Ry
     estimated scf accuracy    <          1.5E-09 Ry

     iteration #  5     ecut=    90.00 Ry     beta= 0.70
     Davidson diagonalization with overlap
     ethr =  2.86E-12,  avg # of iterations =  3.5

     total cpu time spent up to now is     6939.3 secs

     total energy              =    -447.59050931 Ry
     Harris-Foulkes estimate   =    -447.59050931 Ry
     estimated scf accuracy    <          6.0E-10 Ry

     iteration #  6     ecut=    90.00 Ry     beta= 0.70
     Davidson diagonalization with overlap
     ethr =  1.15E-12,  avg # of iterations =  3.0

     total cpu time spent up to now is     7020.5 secs

     total energy              =    -447.59050931 Ry
     Harris-Foulkes estimate   =    -447.59050931 Ry
     estimated scf accuracy    <          1.2E-11 Ry

     iteration #  7     ecut=    90.00 Ry     beta= 0.70
     Davidson diagonalization with overlap
     ethr =  1.00E-13,  avg # of iterations =  2.0

     total cpu time spent up to now is     7091.7 secs

     total energy              =    -447.59050931 Ry
     Harris-Foulkes estimate   =    -447.59050931 Ry
     estimated scf accuracy    <          1.3E-12 Ry

     iteration #  8     ecut=    90.00 Ry     beta= 0.70
     Davidson diagonalization with overlap
     ethr =  1.00E-13,  avg # of iterations =  1.0

     total cpu time spent up to now is     7156.5 secs

     End of self-consistent calculation

     Number of k-points >= 100: set verbosity='high' to print the bands.

     highest occupied level (ev):     8.9032

!    total energy              =    -447.59050931 Ry
     Harris-Foulkes estimate   =    -447.59050931 Ry
     estimated scf accuracy    <          7.8E-14 Ry

     The total energy is the sum of the following terms:

     one-electron contribution =    -125.64194731 Ry
     hartree contribution      =     101.52731402 Ry
     xc contribution           =    -122.07280136 Ry
     ewald contribution        =    -301.40307466 Ry

     convergence has been achieved in   8 iterations

     Forces acting on atoms (cartesian axes, Ry/au):

     atom    1 type  1   force =    -0.00003899   -0.00003899    0.00000000
     atom    2 type  1   force =    -0.00005338   -0.00005338    0.00000000
     atom    3 type  2   force =    -0.00000576    0.00004751    0.00000000
     atom    4 type  2   force =     0.00004751   -0.00000576    0.00000000
     atom    5 type  2   force =    -0.00000159   -0.00000159    0.00000000
     atom    6 type  2   force =     0.00005221    0.00005221    0.00000000

     Total force =     0.000137     Total SCF correction =     0.000001


     Computing stress (Cartesian axis) and pressure

          total   stress  (Ry/bohr**3)                   (kbar)     P=    0.02
   0.00000043   0.00000000   0.00000000          0.06      0.00      0.00
   0.00000000   0.00000043   0.00000000          0.00      0.06      0.00
   0.00000000   0.00000000  -0.00000052          0.00      0.00     -0.08


     number of scf cycles    =   8
     number of bfgs steps    =   7

     enthalpy old            =    -447.5905092292 Ry
     enthalpy new            =    -447.5905093105 Ry

     CASE: enthalpy_new < enthalpy_old

     new trust radius        =       0.0002392662 bohr
     new conv_thr            =            1.0E-12 Ry

     new unit-cell volume =    512.28909 a.u.^3 (    75.91341 Ang^3 )
     density =      6.59321 g/cm^3

CELL_PARAMETERS (alat=  9.11000000)
   1.002942128   0.000000000   0.000000000
   0.000000000   1.002942128   0.000000000
   0.000000000   0.000000000   0.673609532

ATOMIC_POSITIONS (crystal)
Sn      -0.000319388  -0.000319388   0.000000000
Sn       0.499679093   0.499679093   0.500000000
O        0.806360133   0.192947365   0.500000000
O        0.192947365   0.806360133   0.500000000
O        0.306372812   0.306372812   0.000000000
O        0.692959984   0.692959984   0.000000000



     Writing output data file SnO2.save
     NEW-OLD atomic charge density approx. for the potential
     extrapolated charge   51.99986, renormalised to   52.00000

     total cpu time spent up to now is     7187.4 secs

     Self-consistent Calculation

     iteration #  1     ecut=    90.00 Ry     beta= 0.70
     Davidson diagonalization with overlap
     ethr =  1.00E-06,  avg # of iterations =  1.9

     Threshold (ethr) on eigenvalues was too large:
     Diagonalizing with lowered threshold

     Davidson diagonalization with overlap
     ethr =  2.93E-10,  avg # of iterations =  3.3

     total cpu time spent up to now is     7366.8 secs

     total energy              =    -447.59050934 Ry
     Harris-Foulkes estimate   =    -447.59081447 Ry
     estimated scf accuracy    <       0.00000002 Ry

     iteration #  2     ecut=    90.00 Ry     beta= 0.70
     Davidson diagonalization with overlap
     ethr =  3.15E-11,  avg # of iterations =  2.0

     total cpu time spent up to now is     7454.8 secs

     total energy              =    -447.59050934 Ry
     Harris-Foulkes estimate   =    -447.59050934 Ry
     estimated scf accuracy    <          2.2E-09 Ry

     iteration #  3     ecut=    90.00 Ry     beta= 0.70
     Davidson diagonalization with overlap
     ethr =  4.26E-12,  avg # of iterations =  2.7

     total cpu time spent up to now is     7548.1 secs

     total energy              =    -447.59050934 Ry
     Harris-Foulkes estimate   =    -447.59050934 Ry
     estimated scf accuracy    <          4.1E-10 Ry

     iteration #  4     ecut=    90.00 Ry     beta= 0.70
     Davidson diagonalization with overlap
     ethr =  7.98E-13,  avg # of iterations =  2.9

     total cpu time spent up to now is     7636.8 secs

     total energy              =    -447.59050934 Ry
     Harris-Foulkes estimate   =    -447.59050934 Ry
     estimated scf accuracy    <          4.0E-11 Ry

     iteration #  5     ecut=    90.00 Ry     beta= 0.70
     Davidson diagonalization with overlap
     ethr =  1.00E-13,  avg # of iterations =  3.0

     total cpu time spent up to now is     7726.2 secs

     total energy              =    -447.59050934 Ry
     Harris-Foulkes estimate   =    -447.59050934 Ry
     estimated scf accuracy    <          1.1E-11 Ry

     iteration #  6     ecut=    90.00 Ry     beta= 0.70
     Davidson diagonalization with overlap
     ethr =  1.00E-13,  avg # of iterations =  2.0

     total cpu time spent up to now is     7799.5 secs

     total energy              =    -447.59050934 Ry
     Harris-Foulkes estimate   =    -447.59050934 Ry
     estimated scf accuracy    <          1.3E-12 Ry

     iteration #  7     ecut=    90.00 Ry     beta= 0.70
     Davidson diagonalization with overlap
     ethr =  1.00E-13,  avg # of iterations =  1.0

     total cpu time spent up to now is     7868.3 secs

     End of self-consistent calculation

     Number of k-points >= 100: set verbosity='high' to print the bands.

     highest occupied level (ev):     8.9033

!    total energy              =    -447.59050934 Ry
     Harris-Foulkes estimate   =    -447.59050934 Ry
     estimated scf accuracy    <          5.9E-14 Ry

     The total energy is the sum of the following terms:

     one-electron contribution =    -125.64083783 Ry
     hartree contribution      =     101.52680175 Ry
     xc contribution           =    -122.07279978 Ry
     ewald contribution        =    -301.40367348 Ry

     convergence has been achieved in   7 iterations

     Forces acting on atoms (cartesian axes, Ry/au):

     atom    1 type  1   force =    -0.00003432   -0.00003432    0.00000000
     atom    2 type  1   force =    -0.00002671   -0.00002671    0.00000000
     atom    3 type  2   force =     0.00000031    0.00001506    0.00000000
     atom    4 type  2   force =     0.00001506    0.00000031    0.00000000
     atom    5 type  2   force =     0.00001530    0.00001530    0.00000000
     atom    6 type  2   force =     0.00003036    0.00003036    0.00000000

     Total force =     0.000081     Total SCF correction =     0.000002


     Computing stress (Cartesian axis) and pressure

          total   stress  (Ry/bohr**3)                   (kbar)     P=    0.01
   0.00000039   0.00000000   0.00000000          0.06      0.00      0.00
   0.00000000   0.00000039   0.00000000          0.00      0.06      0.00
   0.00000000   0.00000000  -0.00000050          0.00      0.00     -0.07


     number of scf cycles    =   9
     number of bfgs steps    =   8

     enthalpy old            =    -447.5905093105 Ry
     enthalpy new            =    -447.5905093413 Ry

     CASE: enthalpy_new < enthalpy_old

     new trust radius        =       0.0001597130 bohr
     new conv_thr            =            1.0E-12 Ry

     new unit-cell volume =    512.29284 a.u.^3 (    75.91397 Ang^3 )
     density =      6.59316 g/cm^3

CELL_PARAMETERS (alat=  9.11000000)
   1.002956454   0.000000000   0.000000000
   0.000000000   1.002956454   0.000000000
   0.000000000   0.000000000   0.673595231

ATOMIC_POSITIONS (crystal)
Sn      -0.000329885  -0.000329885   0.000000000
Sn       0.499667216   0.499667216   0.500000000
O        0.806367672   0.192963136   0.500000000
O        0.192963136   0.806367672   0.500000000
O        0.306368199   0.306368199   0.000000000
O        0.692963662   0.692963662   0.000000000



     Writing output data file SnO2.save
     NEW-OLD atomic charge density approx. for the potential
     extrapolated charge   52.00038, renormalised to   52.00000

     total cpu time spent up to now is     7900.4 secs

     Self-consistent Calculation

     iteration #  1     ecut=    90.00 Ry     beta= 0.70
     Davidson diagonalization with overlap
     ethr =  1.00E-06,  avg # of iterations =  1.1

     Threshold (ethr) on eigenvalues was too large:
     Diagonalizing with lowered threshold

     Davidson diagonalization with overlap
     ethr =  4.82E-10,  avg # of iterations =  3.0

     total cpu time spent up to now is     8076.7 secs

     total energy              =    -447.59050935 Ry
     Harris-Foulkes estimate   =    -447.58966699 Ry
     estimated scf accuracy    <       0.00000001 Ry

     iteration #  2     ecut=    90.00 Ry     beta= 0.70
     Davidson diagonalization with overlap
     ethr =  2.43E-11,  avg # of iterations =  3.0

     total cpu time spent up to now is     8181.1 secs

     total energy              =    -447.59050936 Ry
     Harris-Foulkes estimate   =    -447.59050936 Ry
     estimated scf accuracy    <       0.00000001 Ry

     iteration #  3     ecut=    90.00 Ry     beta= 0.70
     Davidson diagonalization with overlap
     ethr =  2.32E-11,  avg # of iterations =  2.0

     total cpu time spent up to now is     8263.9 secs

     total energy              =    -447.59050936 Ry
     Harris-Foulkes estimate   =    -447.59050936 Ry
     estimated scf accuracy    <          6.6E-10 Ry

     iteration #  4     ecut=    90.00 Ry     beta= 0.70
     Davidson diagonalization with overlap
     ethr =  1.28E-12,  avg # of iterations =  2.1

     total cpu time spent up to now is     8353.1 secs

     total energy              =    -447.59050936 Ry
     Harris-Foulkes estimate   =    -447.59050936 Ry
     estimated scf accuracy    <          2.0E-10 Ry

     iteration #  5     ecut=    90.00 Ry     beta= 0.70
     Davidson diagonalization with overlap
     ethr =  3.86E-13,  avg # of iterations =  3.0

     total cpu time spent up to now is     8439.9 secs

     total energy              =    -447.59050936 Ry
     Harris-Foulkes estimate   =    -447.59050936 Ry
     estimated scf accuracy    <          5.1E-11 Ry

     iteration #  6     ecut=    90.00 Ry     beta= 0.70
     Davidson diagonalization with overlap
     ethr =  1.00E-13,  avg # of iterations =  3.1

     total cpu time spent up to now is     8526.8 secs

     total energy              =    -447.59050936 Ry
     Harris-Foulkes estimate   =    -447.59050936 Ry
     estimated scf accuracy    <          2.3E-12 Ry

     iteration #  7     ecut=    90.00 Ry     beta= 0.70
     Davidson diagonalization with overlap
     ethr =  1.00E-13,  avg # of iterations =  1.0

     total cpu time spent up to now is     8593.8 secs

     End of self-consistent calculation

     Number of k-points >= 100: set verbosity='high' to print the bands.

     highest occupied level (ev):     8.9032

!    total energy              =    -447.59050936 Ry
     Harris-Foulkes estimate   =    -447.59050936 Ry
     estimated scf accuracy    <          3.3E-13 Ry

     The total energy is the sum of the following terms:

     one-electron contribution =    -125.64312068 Ry
     hartree contribution      =     101.52766064 Ry
     xc contribution           =    -122.07278000 Ry
     ewald contribution        =    -301.40226931 Ry

     convergence has been achieved in   7 iterations

     Forces acting on atoms (cartesian axes, Ry/au):

     atom    1 type  1   force =    -0.00001279   -0.00001279    0.00000000
     atom    2 type  1   force =     0.00000196    0.00000196    0.00000000
     atom    3 type  2   force =     0.00000745   -0.00000652    0.00000000
     atom    4 type  2   force =    -0.00000652    0.00000745    0.00000000
     atom    5 type  2   force =     0.00001188    0.00001188    0.00000000
     atom    6 type  2   force =    -0.00000200   -0.00000200    0.00000000

     Total force =     0.000029     Total SCF correction =     0.000002


     Computing stress (Cartesian axis) and pressure

          total   stress  (Ry/bohr**3)                   (kbar)     P=    0.01
   0.00000020   0.00000000   0.00000000          0.03      0.00      0.00
   0.00000000   0.00000020   0.00000000          0.00      0.03      0.00
   0.00000000   0.00000000  -0.00000029          0.00      0.00     -0.04


     number of scf cycles    =  10
     number of bfgs steps    =   9

     enthalpy old            =    -447.5905093413 Ry
     enthalpy new            =    -447.5905093587 Ry

     CASE: enthalpy_new < enthalpy_old

     small trust_radius: resetting bfgs history

     new trust radius        =       0.0000325316 bohr
     new conv_thr            =            1.0E-12 Ry

     new unit-cell volume =    512.29433 a.u.^3 (    75.91419 Ang^3 )
     density =      6.59314 g/cm^3

CELL_PARAMETERS (alat=  9.11000000)
   1.002961512   0.000000000   0.000000000
   0.000000000   1.002961512   0.000000000
   0.000000000   0.000000000   0.673590390

ATOMIC_POSITIONS (crystal)
Sn      -0.000331285  -0.000331285   0.000000000
Sn       0.499667431   0.499667431   0.500000000
O        0.806368488   0.192962422   0.500000000
O        0.192962422   0.806368488   0.500000000
O        0.306369499   0.306369499   0.000000000
O        0.692963443   0.692963443   0.000000000



     Writing output data file SnO2.save
     NEW-OLD atomic charge density approx. for the potential
     extrapolated charge   52.00015, renormalised to   52.00000

     total cpu time spent up to now is     8625.5 secs

     Self-consistent Calculation

     iteration #  1     ecut=    90.00 Ry     beta= 0.70
     Davidson diagonalization with overlap
     ethr =  1.00E-06,  avg # of iterations =  1.0

     Threshold (ethr) on eigenvalues was too large:
     Diagonalizing with lowered threshold

     Davidson diagonalization with overlap
     ethr =  7.10E-12,  avg # of iterations =  3.6

     total cpu time spent up to now is     8803.7 secs

     total energy              =    -447.59050936 Ry
     Harris-Foulkes estimate   =    -447.59017628 Ry
     estimated scf accuracy    <          6.6E-10 Ry

     iteration #  2     ecut=    90.00 Ry     beta= 0.70
     Davidson diagonalization with overlap
     ethr =  1.27E-12,  avg # of iterations =  4.0

     total cpu time spent up to now is     8917.5 secs

     total energy              =    -447.59050936 Ry
     Harris-Foulkes estimate   =    -447.59050936 Ry
     estimated scf accuracy    <          1.7E-09 Ry

     iteration #  3     ecut=    90.00 Ry     beta= 0.70
     Davidson diagonalization with overlap
     ethr =  1.27E-12,  avg # of iterations =  2.0

     total cpu time spent up to now is     8999.5 secs

     total energy              =    -447.59050936 Ry
     Harris-Foulkes estimate   =    -447.59050936 Ry
     estimated scf accuracy    <          2.4E-10 Ry

     iteration #  4     ecut=    90.00 Ry     beta= 0.70
     Davidson diagonalization with overlap
     ethr =  4.56E-13,  avg # of iterations =  1.0

     total cpu time spent up to now is     9065.1 secs

     total energy              =    -447.59050936 Ry
     Harris-Foulkes estimate   =    -447.59050936 Ry
     estimated scf accuracy    <          1.0E-10 Ry

     iteration #  5     ecut=    90.00 Ry     beta= 0.70
     Davidson diagonalization with overlap
     ethr =  1.98E-13,  avg # of iterations =  2.0

     total cpu time spent up to now is     9156.2 secs

     total energy              =    -447.59050936 Ry
     Harris-Foulkes estimate   =    -447.59050936 Ry
     estimated scf accuracy    <          1.3E-12 Ry

     iteration #  6     ecut=    90.00 Ry     beta= 0.70
     Davidson diagonalization with overlap
     ethr =  1.00E-13,  avg # of iterations =  1.0

     total cpu time spent up to now is     9221.7 secs

     End of self-consistent calculation

     Number of k-points >= 100: set verbosity='high' to print the bands.

     highest occupied level (ev):     8.9031

!    total energy              =    -447.59050936 Ry
     Harris-Foulkes estimate   =    -447.59050936 Ry
     estimated scf accuracy    <          8.0E-14 Ry

     The total energy is the sum of the following terms:

     one-electron contribution =    -125.64445608 Ry
     hartree contribution      =     101.52823128 Ry
     xc contribution           =    -122.07277986 Ry
     ewald contribution        =    -301.40150470 Ry

     convergence has been achieved in   6 iterations

     Forces acting on atoms (cartesian axes, Ry/au):

     atom    1 type  1   force =    -0.00000640   -0.00000640    0.00000000
     atom    2 type  1   force =     0.00000028    0.00000028    0.00000000
     atom    3 type  2   force =     0.00000414   -0.00000300    0.00000000
     atom    4 type  2   force =    -0.00000300    0.00000414    0.00000000
     atom    5 type  2   force =     0.00000610    0.00000610    0.00000000
     atom    6 type  2   force =    -0.00000112   -0.00000112    0.00000000

     Total force =     0.000015     Total SCF correction =     0.000000


     Computing stress (Cartesian axis) and pressure

          total   stress  (Ry/bohr**3)                   (kbar)     P=    0.01
   0.00000015  -0.00000000   0.00000000          0.02     -0.00      0.00
  -0.00000000   0.00000015   0.00000000         -0.00      0.02      0.00
   0.00000000   0.00000000  -0.00000017          0.00      0.00     -0.03


     number of scf cycles    =  11
     number of bfgs steps    =  10

     enthalpy old            =    -447.5905093587 Ry
     enthalpy new            =    -447.5905093611 Ry

     CASE: enthalpy_new < enthalpy_old

     Message from routine bfgs:
     history already reset at previous step: stopping
     small trust_radius: resetting bfgs history

     new trust radius        =       0.0000197330 bohr
     new conv_thr            =            2.4E-13 Ry

     new unit-cell volume =    512.29599 a.u.^3 (    75.91443 Ang^3 )
     density =      6.59312 g/cm^3

CELL_PARAMETERS (alat=  9.11000000)
   1.002965326   0.000000000   0.000000000
   0.000000000   1.002965326   0.000000000
   0.000000000   0.000000000   0.673587454

ATOMIC_POSITIONS (crystal)
Sn      -0.000331985  -0.000331985   0.000000000
Sn       0.499667462   0.499667462   0.500000000
O        0.806368941   0.192962094   0.500000000
O        0.192962094   0.806368941   0.500000000
O        0.306370167   0.306370167   0.000000000
O        0.692963321   0.692963321   0.000000000



     Writing output data file SnO2.save
     NEW-OLD atomic charge density approx. for the potential
     extrapolated charge   52.00017, renormalised to   52.00000

     total cpu time spent up to now is     9252.6 secs

     Self-consistent Calculation

     iteration #  1     ecut=    90.00 Ry     beta= 0.70
     Davidson diagonalization with overlap
     ethr =  1.00E-06,  avg # of iterations =  1.0

     Threshold (ethr) on eigenvalues was too large:
     Diagonalizing with lowered threshold

     Davidson diagonalization with overlap
     ethr =  2.96E-12,  avg # of iterations =  3.4

     total cpu time spent up to now is     9423.5 secs

     total energy              =    -447.59050936 Ry
     Harris-Foulkes estimate   =    -447.59013662 Ry
     estimated scf accuracy    <          8.1E-10 Ry

     iteration #  2     ecut=    90.00 Ry     beta= 0.70
     Davidson diagonalization with overlap
     ethr =  1.56E-12,  avg # of iterations =  4.0

     total cpu time spent up to now is     9537.6 secs

     total energy              =    -447.59050936 Ry
     Harris-Foulkes estimate   =    -447.59050936 Ry
     estimated scf accuracy    <          2.3E-09 Ry

     iteration #  3     ecut=    90.00 Ry     beta= 0.70
     Davidson diagonalization with overlap
     ethr =  1.56E-12,  avg # of iterations =  2.0

     total cpu time spent up to now is     9619.9 secs

     total energy              =    -447.59050936 Ry
     Harris-Foulkes estimate   =    -447.59050936 Ry
     estimated scf accuracy    <          3.1E-10 Ry

     iteration #  4     ecut=    90.00 Ry     beta= 0.70
     Davidson diagonalization with overlap
     ethr =  5.98E-13,  avg # of iterations =  1.0

     total cpu time spent up to now is     9685.4 secs

     total energy              =    -447.59050936 Ry
     Harris-Foulkes estimate   =    -447.59050936 Ry
     estimated scf accuracy    <          1.6E-10 Ry

     iteration #  5     ecut=    90.00 Ry     beta= 0.70
     Davidson diagonalization with overlap
     ethr =  3.03E-13,  avg # of iterations =  2.0

     total cpu time spent up to now is     9775.8 secs

     End of self-consistent calculation

     Number of k-points >= 100: set verbosity='high' to print the bands.

     highest occupied level (ev):     8.9031

!    total energy              =    -447.59050936 Ry
     Harris-Foulkes estimate   =    -447.59050936 Ry
     estimated scf accuracy    <          2.3E-13 Ry

     The total energy is the sum of the following terms:

     one-electron contribution =    -125.64551992 Ry
     hartree contribution      =     101.52866107 Ry
     xc contribution           =    -122.07277486 Ry
     ewald contribution        =    -301.40087566 Ry

     convergence has been achieved in   5 iterations

     Forces acting on atoms (cartesian axes, Ry/au):

     atom    1 type  1   force =    -0.00000326   -0.00000326    0.00000000
     atom    2 type  1   force =    -0.00000041   -0.00000041    0.00000000
     atom    3 type  2   force =     0.00000240   -0.00000118    0.00000000
     atom    4 type  2   force =    -0.00000118    0.00000240    0.00000000
     atom    5 type  2   force =     0.00000300    0.00000300    0.00000000
     atom    6 type  2   force =    -0.00000055   -0.00000055    0.00000000

     Total force =     0.000007     Total SCF correction =     0.000001
     SCF correction compared to forces is large: reduce conv_thr to get better values


     Computing stress (Cartesian axis) and pressure

          total   stress  (Ry/bohr**3)                   (kbar)     P=    0.01
   0.00000011  -0.00000000   0.00000000          0.02     -0.00      0.00
  -0.00000000   0.00000011   0.00000000         -0.00      0.02      0.00
  -0.00000000   0.00000000  -0.00000011         -0.00      0.00     -0.02


     bfgs converged in  12 scf cycles and  11 bfgs steps
     (criteria: energy <  1.0E-10 Ry, force <  1.0E-09Ry/Bohr, cell <  5.0E-01kbar)

     End of BFGS Geometry Optimization

     Final enthalpy =    -447.5905093620 Ry
Begin final coordinates
     new unit-cell volume =    512.29599 a.u.^3 (    75.91443 Ang^3 )
     density =      6.59312 g/cm^3

CELL_PARAMETERS (alat=  9.11000000)
   1.002965326   0.000000000   0.000000000
   0.000000000   1.002965326   0.000000000
   0.000000000   0.000000000   0.673587454

ATOMIC_POSITIONS (crystal)
Sn      -0.000331985  -0.000331985   0.000000000
Sn       0.499667462   0.499667462   0.500000000
O        0.806368941   0.192962094   0.500000000
O        0.192962094   0.806368941   0.500000000
O        0.306370167   0.306370167   0.000000000
O        0.692963321   0.692963321   0.000000000
End final coordinates



     A final scf calculation at the relaxed structure.
     The G-vectors are recalculated for the final unit cell
     Results may differ from those at the preceding step.
 
     Parallelization info
     --------------------
     sticks:   dense  smooth     PW     G-vecs:    dense   smooth      PW
     Min        1196    1196    340                29578    29578    4549
     Max        1197    1197    341                29579    29579    4550
     Sum        2393    2393    681                59157    59157    9099
 


     bravais-lattice index     =            6
     lattice parameter (alat)  =       9.1100  a.u.
     unit-cell volume          =     512.2960 (a.u.)^3
     number of atoms/cell      =            6
     number of atomic types    =            2
     number of electrons       =        52.00
     number of Kohn-Sham states=           26
     kinetic-energy cutoff     =      90.0000  Ry
     charge density cutoff     =     360.0000  Ry
     convergence threshold     =      2.4E-13
     mixing beta               =       0.7000
     number of iterations used =            8  plain     mixing
     Exchange-correlation      = PBE ( 1  4  3  4 0 0)

     celldm(1)=   9.110000  celldm(2)=   0.000000  celldm(3)=   0.670000
     celldm(4)=   0.000000  celldm(5)=   0.000000  celldm(6)=   0.000000

     crystal axes: (cart. coord. in units of alat)
               a(1) = (   1.002965   0.000000   0.000000 )  
               a(2) = (   0.000000   1.002965   0.000000 )  
               a(3) = (   0.000000   0.000000   0.673587 )  

     reciprocal axes: (cart. coord. in units 2 pi/alat)
               b(1) = (  0.997043  0.000000  0.000000 )  
               b(2) = (  0.000000  0.997043  0.000000 )  
               b(3) = (  0.000000  0.000000  1.484588 )  


     PseudoPot. # 1 for Sn read from file:
     ../../Pseudo_potentials/Sn_PBE.upf
     MD5 check sum: 78e6386ae56e929f0568ae8bf606a80c
     Pseudo is Norm-conserving + core correction, Zval = 14.0
     Generated using ONCVPSP code by D. R. Hamann
     Using radial grid of 1628 points,  6 beta functions with: 
                l(1) =   0
                l(2) =   0
                l(3) =   1
                l(4) =   1
                l(5) =   2
                l(6) =   2

     PseudoPot. # 2 for O  read from file:
     ../../Pseudo_potentials/O_PBE.upf
     MD5 check sum: 3e3f909f7470e8921608ab6b1f57bbae
     Pseudo is Norm-conserving + core correction, Zval =  6.0
     Generated using ONCVPSP code by D. R. Hamann
     Using radial grid of  936 points,  5 beta functions with: 
                l(1) =   0
                l(2) =   0
                l(3) =   1
                l(4) =   1
                l(5) =   2

     atomic species   valence    mass     pseudopotential
        Sn            14.00   118.71000     Sn( 1.00)
        O              6.00    15.99900     O ( 1.00)

      4 Sym. Ops. (no inversion) found



   Cartesian axes

     site n.     atom                  positions (alat units)
         1           Sn  tau(   1) = (  -0.0003330  -0.0003330   0.0000000  )
         2           Sn  tau(   2) = (   0.5011491   0.5011491   0.3367937  )
         3           O   tau(   3) = (   0.8087601   0.1935343   0.3367937  )
         4           O   tau(   4) = (   0.1935343   0.8087601   0.3367937  )
         5           O   tau(   5) = (   0.3072787   0.3072787   0.0000000  )
         6           O   tau(   6) = (   0.6950182   0.6950182   0.0000000  )

     number of k points=   301

     Number of k-points >= 100: set verbosity='high' to print them.

     Dense  grid:    59157 G-vectors     FFT dimensions: (  60,  60,  40)

     Estimated max dynamical RAM per process >     487.09 MB

     Estimated total dynamical RAM >     974.19 MB

     Initial potential from superposition of free atoms

     starting charge   51.99690, renormalised to   52.00000
     Starting wfc are   34 randomized atomic wfcs

     Writing output data file SnO2.save

     total cpu time spent up to now is     9836.9 secs

     Self-consistent Calculation

     iteration #  1     ecut=    90.00 Ry     beta= 0.70
     Davidson diagonalization with overlap
     ethr =  1.00E-06,  avg # of iterations =  5.6

     total cpu time spent up to now is     9995.1 secs

     total energy              =    -446.90505607 Ry
     Harris-Foulkes estimate   =    -448.04557531 Ry
     estimated scf accuracy    <       1.55002520 Ry

     iteration #  2     ecut=    90.00 Ry     beta= 0.70
     Davidson diagonalization with overlap
     ethr =  2.98E-03,  avg # of iterations =  3.1

     total cpu time spent up to now is    10083.7 secs

     total energy              =    -447.27493791 Ry
     Harris-Foulkes estimate   =    -448.03692168 Ry
     estimated scf accuracy    <       1.56337366 Ry

     iteration #  3     ecut=    90.00 Ry     beta= 0.70
     Davidson diagonalization with overlap
     ethr =  2.98E-03,  avg # of iterations =  3.0

     total cpu time spent up to now is    10168.2 secs

     total energy              =    -447.58681220 Ry
     Harris-Foulkes estimate   =    -447.58774427 Ry
     estimated scf accuracy    <       0.00622720 Ry

     iteration #  4     ecut=    90.00 Ry     beta= 0.70
     Davidson diagonalization with overlap
     ethr =  1.20E-05,  avg # of iterations =  2.9

     total cpu time spent up to now is    10263.0 secs

     total energy              =    -447.59004927 Ry
     Harris-Foulkes estimate   =    -447.59024512 Ry
     estimated scf accuracy    <       0.00041852 Ry

     iteration #  5     ecut=    90.00 Ry     beta= 0.70
     Davidson diagonalization with overlap
     ethr =  8.05E-07,  avg # of iterations =  3.0

     total cpu time spent up to now is    10339.7 secs

     total energy              =    -447.59007880 Ry
     Harris-Foulkes estimate   =    -447.59009077 Ry
     estimated scf accuracy    <       0.00003472 Ry

     iteration #  6     ecut=    90.00 Ry     beta= 0.70
     Davidson diagonalization with overlap
     ethr =  6.68E-08,  avg # of iterations =  2.7

     total cpu time spent up to now is    10431.6 secs

     total energy              =    -447.59046002 Ry
     Harris-Foulkes estimate   =    -447.59045988 Ry
     estimated scf accuracy    <       0.00000190 Ry

     iteration #  7     ecut=    90.00 Ry     beta= 0.70
     Davidson diagonalization with overlap
     ethr =  3.65E-09,  avg # of iterations =  3.0

     total cpu time spent up to now is    10515.2 secs

     total energy              =    -447.59046020 Ry
     Harris-Foulkes estimate   =    -447.59046034 Ry
     estimated scf accuracy    <       0.00000034 Ry

     iteration #  8     ecut=    90.00 Ry     beta= 0.70
     Davidson diagonalization with overlap
     ethr =  6.54E-10,  avg # of iterations =  2.0

     total cpu time spent up to now is    10583.5 secs

     total energy              =    -447.59046021 Ry
     Harris-Foulkes estimate   =    -447.59046022 Ry
     estimated scf accuracy    <          2.5E-09 Ry

     iteration #  9     ecut=    90.00 Ry     beta= 0.70
     Davidson diagonalization with overlap
     ethr =  4.86E-12,  avg # of iterations =  4.1

     total cpu time spent up to now is    10694.6 secs

     total energy              =    -447.59046022 Ry
     Harris-Foulkes estimate   =    -447.59046022 Ry
     estimated scf accuracy    <          1.1E-09 Ry

     iteration # 10     ecut=    90.00 Ry     beta= 0.70
     Davidson diagonalization with overlap
     ethr =  2.04E-12,  avg # of iterations =  2.0

     total cpu time spent up to now is    10772.3 secs

     total energy              =    -447.59051092 Ry
     Harris-Foulkes estimate   =    -447.59051093 Ry
     estimated scf accuracy    <       0.00000010 Ry

     iteration # 11     ecut=    90.00 Ry     beta= 0.70
     Davidson diagonalization with overlap
     ethr =  2.04E-12,  avg # of iterations =  1.4

     total cpu time spent up to now is    10838.0 secs

     total energy              =    -447.59051091 Ry
     Harris-Foulkes estimate   =    -447.59051092 Ry
     estimated scf accuracy    <       0.00000009 Ry

     iteration # 12     ecut=    90.00 Ry     beta= 0.70
     Davidson diagonalization with overlap
     ethr =  2.04E-12,  avg # of iterations =  4.0

     total cpu time spent up to now is    10933.0 secs

     total energy              =    -447.59051091 Ry
     Harris-Foulkes estimate   =    -447.59051091 Ry
     estimated scf accuracy    <       0.00000006 Ry

     iteration # 13     ecut=    90.00 Ry     beta= 0.70
     Davidson diagonalization with overlap
     ethr =  2.04E-12,  avg # of iterations =  3.5

     total cpu time spent up to now is    11021.0 secs

     total energy              =    -447.59051089 Ry
     Harris-Foulkes estimate   =    -447.59051091 Ry
     estimated scf accuracy    <       0.00000003 Ry

     iteration # 14     ecut=    90.00 Ry     beta= 0.70
     Davidson diagonalization with overlap
     ethr =  2.04E-12,  avg # of iterations =  4.0

     total cpu time spent up to now is    11133.3 secs

     total energy              =    -447.59051090 Ry
     Harris-Foulkes estimate   =    -447.59051090 Ry
     estimated scf accuracy    <          4.8E-09 Ry

     iteration # 15     ecut=    90.00 Ry     beta= 0.70
     Davidson diagonalization with overlap
     ethr =  2.04E-12,  avg # of iterations =  2.0

     total cpu time spent up to now is    11205.4 secs

     total energy              =    -447.59051090 Ry
     Harris-Foulkes estimate   =    -447.59051090 Ry
     estimated scf accuracy    <          2.2E-09 Ry

     iteration # 16     ecut=    90.00 Ry     beta= 0.70
     Davidson diagonalization with overlap
     ethr =  2.04E-12,  avg # of iterations =  3.0

     total cpu time spent up to now is    11290.0 secs

     total energy              =    -447.59051090 Ry
     Harris-Foulkes estimate   =    -447.59051090 Ry
     estimated scf accuracy    <          2.9E-10 Ry

     iteration # 17     ecut=    90.00 Ry     beta= 0.70
     Davidson diagonalization with overlap
     ethr =  5.58E-13,  avg # of iterations =  2.0

     total cpu time spent up to now is    11357.9 secs

     total energy              =    -447.59051090 Ry
     Harris-Foulkes estimate   =    -447.59051090 Ry
     estimated scf accuracy    <          4.8E-11 Ry

     iteration # 18     ecut=    90.00 Ry     beta= 0.70
     Davidson diagonalization with overlap
     ethr =  1.00E-13,  avg # of iterations =  3.1

     total cpu time spent up to now is    11441.6 secs

     total energy              =    -447.59051090 Ry
     Harris-Foulkes estimate   =    -447.59051090 Ry
     estimated scf accuracy    <          1.9E-12 Ry

     iteration # 19     ecut=    90.00 Ry     beta= 0.70
     Davidson diagonalization with overlap
     ethr =  1.00E-13,  avg # of iterations =  1.0

     total cpu time spent up to now is    11506.0 secs

     total energy              =    -447.59051090 Ry
     Harris-Foulkes estimate   =    -447.59051090 Ry
     estimated scf accuracy    <          3.8E-13 Ry

     iteration # 20     ecut=    90.00 Ry     beta= 0.70
     Davidson diagonalization with overlap
     ethr =  1.00E-13,  avg # of iterations =  1.0

     total cpu time spent up to now is    11570.6 secs

     total energy              =    -447.59051090 Ry
     Harris-Foulkes estimate   =    -447.59051090 Ry
     estimated scf accuracy    <          3.4E-13 Ry

     iteration # 21     ecut=    90.00 Ry     beta= 0.70
     Davidson diagonalization with overlap
     ethr =  1.00E-13,  avg # of iterations =  1.0

     total cpu time spent up to now is    11635.2 secs

     total energy              =    -447.59051090 Ry
     Harris-Foulkes estimate   =    -447.59051090 Ry
     estimated scf accuracy    <          2.9E-13 Ry

     iteration # 22     ecut=    90.00 Ry     beta= 0.70
     Davidson diagonalization with overlap
     ethr =  1.00E-13,  avg # of iterations =  1.0

     total cpu time spent up to now is    11699.8 secs

     End of self-consistent calculation

     Number of k-points >= 100: set verbosity='high' to print the bands.

     highest occupied level (ev):     8.9031

!    total energy              =    -447.59051090 Ry
     Harris-Foulkes estimate   =    -447.59051090 Ry
     estimated scf accuracy    <          2.3E-13 Ry

     The total energy is the sum of the following terms:

     one-electron contribution =    -125.64551479 Ry
     hartree contribution      =     101.52865919 Ry
     xc contribution           =    -122.07277964 Ry
     ewald contribution        =    -301.40087566 Ry

     convergence has been achieved in  22 iterations

     Forces acting on atoms (cartesian axes, Ry/au):

     atom    1 type  1   force =    -0.00000337   -0.00000337    0.00000000
     atom    2 type  1   force =    -0.00000016   -0.00000016    0.00000000
     atom    3 type  2   force =     0.00000257   -0.00000139    0.00000000
     atom    4 type  2   force =    -0.00000139    0.00000257    0.00000000
     atom    5 type  2   force =     0.00000315    0.00000315    0.00000000
     atom    6 type  2   force =    -0.00000080   -0.00000080    0.00000000

     Total force =     0.000008     Total SCF correction =     0.000000


     Computing stress (Cartesian axis) and pressure

          total   stress  (Ry/bohr**3)                   (kbar)     P=    0.02
   0.00000018   0.00000000   0.00000000          0.03      0.00      0.00
   0.00000000   0.00000018   0.00000000          0.00      0.03      0.00
   0.00000000   0.00000000  -0.00000001          0.00      0.00     -0.00


     Writing output data file SnO2.save
 
     init_run     :     63.99s CPU     64.79s WALL (       2 calls)
     electrons    :  11031.07s CPU  11265.55s WALL (      13 calls)
     update_pot   :     21.73s CPU     21.90s WALL (      11 calls)
     forces       :     94.81s CPU     95.29s WALL (      13 calls)
     stress       :    275.45s CPU    276.20s WALL (      13 calls)

     Called by init_run:
     wfcinit      :     62.02s CPU     62.74s WALL (       2 calls)
     potinit      :      0.72s CPU      0.73s WALL (       2 calls)
     hinit0       :      1.21s CPU      1.27s WALL (       2 calls)

     Called by electrons:
     c_bands      :   9676.92s CPU   9898.52s WALL (     133 calls)
     sum_band     :   1348.56s CPU   1360.39s WALL (     133 calls)
     v_of_rho     :      5.05s CPU      5.09s WALL (     136 calls)
     mix_rho      :      0.84s CPU      0.89s WALL (     133 calls)

     Called by c_bands:
     init_us_2    :    202.50s CPU    204.81s WALL (   88494 calls)
     cegterg      :   8787.52s CPU   9005.40s WALL (   40033 calls)

     Called by sum_band:

     Called by *egterg:
     h_psi        :   7603.88s CPU   7726.70s WALL (  141245 calls)
     g_psi        :     72.57s CPU     72.80s WALL (  100610 calls)
     cdiaghg      :    186.78s CPU    179.49s WALL (  134322 calls)

     Called by h_psi:
     h_psi:pot    :   7561.84s CPU   7680.52s WALL (  141245 calls)
     h_psi:calbec :    469.22s CPU    442.95s WALL (  141245 calls)
     vloc_psi     :   6706.64s CPU   6786.10s WALL (  141245 calls)
     add_vuspsi   :    385.76s CPU    450.99s WALL (  141245 calls)

     General routines
     calbec       :    549.13s CPU    513.79s WALL (  160810 calls)
     fft          :      3.01s CPU      3.23s WALL (    1706 calls)
     ffts         :      0.24s CPU      0.24s WALL (     133 calls)
     fftw         :   7498.90s CPU   7405.01s WALL ( 6711114 calls)
 
     Parallel routines
     fft_scatt_xy :    310.46s CPU    578.56s WALL ( 6712953 calls)
     fft_scatt_yz :   3352.75s CPU    824.72s WALL ( 6712953 calls)
 
     PWSCF        :     3h11m CPU        3h15m WALL

 
   This run was terminated on:  10:42:54  11Apr2018            

=------------------------------------------------------------------------------=
   JOB DONE.
=------------------------------------------------------------------------------=
