
     Program PWSCF v.6.2.2 starts on 10Apr2018 at 23:56:27 

     This program is part of the open-source Quantum ESPRESSO suite
     for quantum simulation of materials; please cite
         "P. Giannozzi et al., J. Phys.:Condens. Matter 21 395502 (2009);
         "P. Giannozzi et al., J. Phys.:Condens. Matter 29 465901 (2017);
          URL http://www.quantum-espresso.org", 
     in publications or presentations arising from this work. More details at
     http://www.quantum-espresso.org/quote

     Parallel version (MPI), running on     2 processors

     MPI processes distributed on     1 nodes
     R & G space division:  proc/nbgrp/npool/nimage =       2
     Reading input from Conv_acell-ecut.in

     Current dimensions of program PWSCF are:
     Max number of different atomic species (ntypx) = 10
     Max number of k-points (npk) =  40000
     Max angular momentum in pseudopotentials (lmaxx) =  3

     Subspace diagonalization in iterative solution of the eigenvalue problem:
     a serial algorithm will be used

 
     Parallelization info
     --------------------
     sticks:   dense  smooth     PW     G-vecs:    dense   smooth      PW
     Min         996     996    288                22220    22220    3536
     Max         997     997    289                22221    22221    3539
     Sum        1993    1993    577                44441    44441    7075
 


     bravais-lattice index     =            6
     lattice parameter (alat)  =       9.1100  a.u.
     unit-cell volume          =     506.5589 (a.u.)^3
     number of atoms/cell      =            6
     number of atomic types    =            2
     number of electrons       =        52.00
     number of Kohn-Sham states=           26
     kinetic-energy cutoff     =      75.0000  Ry
     charge density cutoff     =     300.0000  Ry
     convergence threshold     =      1.0E-12
     mixing beta               =       0.7000
     number of iterations used =            8  plain     mixing
     Exchange-correlation      = PBE ( 1  4  3  4 0 0)
     nstep                     =           50


     celldm(1)=   9.110000  celldm(2)=   0.000000  celldm(3)=   0.670000
     celldm(4)=   0.000000  celldm(5)=   0.000000  celldm(6)=   0.000000

     crystal axes: (cart. coord. in units of alat)
               a(1) = (   1.000000   0.000000   0.000000 )  
               a(2) = (   0.000000   1.000000   0.000000 )  
               a(3) = (   0.000000   0.000000   0.670000 )  

     reciprocal axes: (cart. coord. in units 2 pi/alat)
               b(1) = (  1.000000  0.000000  0.000000 )  
               b(2) = (  0.000000  1.000000  0.000000 )  
               b(3) = (  0.000000  0.000000  1.492537 )  


     PseudoPot. # 1 for Sn read from file:
     ../../Pseudo_potentials/Sn_PBE.upf
     MD5 check sum: 78e6386ae56e929f0568ae8bf606a80c
     Pseudo is Norm-conserving + core correction, Zval = 14.0
     Generated using ONCVPSP code by D. R. Hamann
     Using radial grid of 1628 points,  6 beta functions with: 
                l(1) =   0
                l(2) =   0
                l(3) =   1
                l(4) =   1
                l(5) =   2
                l(6) =   2

     PseudoPot. # 2 for O  read from file:
     ../../Pseudo_potentials/O_PBE.upf
     MD5 check sum: 3e3f909f7470e8921608ab6b1f57bbae
     Pseudo is Norm-conserving + core correction, Zval =  6.0
     Generated using ONCVPSP code by D. R. Hamann
     Using radial grid of  936 points,  5 beta functions with: 
                l(1) =   0
                l(2) =   0
                l(3) =   1
                l(4) =   1
                l(5) =   2

     atomic species   valence    mass     pseudopotential
        Sn            14.00   118.71000     Sn( 1.00)
        O              6.00    15.99900     O ( 1.00)

      4 Sym. Ops. (no inversion) found



   Cartesian axes

     site n.     atom                  positions (alat units)
         1           Sn  tau(   1) = (   0.0000000   0.0000000   0.0000000  )
         2           Sn  tau(   2) = (   0.5000000   0.5000000   0.3350000  )
         3           O   tau(   3) = (   0.8060000   0.1930000   0.3350000  )
         4           O   tau(   4) = (   0.1930000   0.8060000   0.3350000  )
         5           O   tau(   5) = (   0.3060000   0.3060000   0.0000000  )
         6           O   tau(   6) = (   0.6930000   0.6930000   0.0000000  )

     number of k points=   301

     Number of k-points >= 100: set verbosity='high' to print them.

     Dense  grid:    44441 G-vectors     FFT dimensions: (  54,  54,  36)

     Estimated max dynamical RAM per process >     367.50 MB

     Estimated total dynamical RAM >     734.99 MB

     Check: negative/imaginary core charge=   -0.000002    0.000000

     Initial potential from superposition of free atoms

     starting charge   51.99690, renormalised to   52.00000
     Starting wfc are   34 randomized atomic wfcs

     total cpu time spent up to now is       27.3 secs

     Self-consistent Calculation

     iteration #  1     ecut=    75.00 Ry     beta= 0.70
     Davidson diagonalization with overlap
     ethr =  1.00E-02,  avg # of iterations =  2.0

     total cpu time spent up to now is       85.3 secs

     total energy              =    -446.85034837 Ry
     Harris-Foulkes estimate   =    -448.03124980 Ry
     estimated scf accuracy    <       1.60349590 Ry

     iteration #  2     ecut=    75.00 Ry     beta= 0.70
     Davidson diagonalization with overlap
     ethr =  3.08E-03,  avg # of iterations =  3.1

     total cpu time spent up to now is      157.0 secs

     total energy              =    -447.26306364 Ry
     Harris-Foulkes estimate   =    -448.06016764 Ry
     estimated scf accuracy    <       1.64235916 Ry

     iteration #  3     ecut=    75.00 Ry     beta= 0.70
     Davidson diagonalization with overlap
     ethr =  3.08E-03,  avg # of iterations =  3.0

     total cpu time spent up to now is      224.7 secs

     total energy              =    -447.58547122 Ry
     Harris-Foulkes estimate   =    -447.58613097 Ry
     estimated scf accuracy    <       0.00602700 Ry

     iteration #  4     ecut=    75.00 Ry     beta= 0.70
     Davidson diagonalization with overlap
     ethr =  1.16E-05,  avg # of iterations =  3.0

     total cpu time spent up to now is      299.8 secs

     total energy              =    -447.58876143 Ry
     Harris-Foulkes estimate   =    -447.58901865 Ry
     estimated scf accuracy    <       0.00054275 Ry

     iteration #  5     ecut=    75.00 Ry     beta= 0.70
     Davidson diagonalization with overlap
     ethr =  1.04E-06,  avg # of iterations =  2.1

     total cpu time spent up to now is      355.3 secs

     total energy              =    -447.58879370 Ry
     Harris-Foulkes estimate   =    -447.58880749 Ry
     estimated scf accuracy    <       0.00003918 Ry

     iteration #  6     ecut=    75.00 Ry     beta= 0.70
     Davidson diagonalization with overlap
     ethr =  7.53E-08,  avg # of iterations =  3.2

     total cpu time spent up to now is      433.2 secs

     total energy              =    -447.58886801 Ry
     Harris-Foulkes estimate   =    -447.58887168 Ry
     estimated scf accuracy    <       0.00001015 Ry

     iteration #  7     ecut=    75.00 Ry     beta= 0.70
     Davidson diagonalization with overlap
     ethr =  1.95E-08,  avg # of iterations =  3.1

     total cpu time spent up to now is      501.2 secs

     total energy              =    -447.58886945 Ry
     Harris-Foulkes estimate   =    -447.58887052 Ry
     estimated scf accuracy    <       0.00000243 Ry

     iteration #  8     ecut=    75.00 Ry     beta= 0.70
     Davidson diagonalization with overlap
     ethr =  4.67E-09,  avg # of iterations =  3.0

     total cpu time spent up to now is      570.7 secs

     total energy              =    -447.58887007 Ry
     Harris-Foulkes estimate   =    -447.58887013 Ry
     estimated scf accuracy    <       0.00000015 Ry

     iteration #  9     ecut=    75.00 Ry     beta= 0.70
     Davidson diagonalization with overlap
     ethr =  2.97E-10,  avg # of iterations =  3.0

     total cpu time spent up to now is      637.5 secs

     total energy              =    -447.58887009 Ry
     Harris-Foulkes estimate   =    -447.58887010 Ry
     estimated scf accuracy    <       0.00000003 Ry

     iteration # 10     ecut=    75.00 Ry     beta= 0.70
     Davidson diagonalization with overlap
     ethr =  6.38E-11,  avg # of iterations =  3.0

     total cpu time spent up to now is      703.7 secs

     total energy              =    -447.58887009 Ry
     Harris-Foulkes estimate   =    -447.58887009 Ry
     estimated scf accuracy    <          1.6E-09 Ry

     iteration # 11     ecut=    75.00 Ry     beta= 0.70
     Davidson diagonalization with overlap
     ethr =  3.15E-12,  avg # of iterations =  3.0

     total cpu time spent up to now is      779.1 secs

     total energy              =    -447.58887009 Ry
     Harris-Foulkes estimate   =    -447.58887009 Ry
     estimated scf accuracy    <          5.9E-11 Ry

     iteration # 12     ecut=    75.00 Ry     beta= 0.70
     Davidson diagonalization with overlap
     ethr =  1.13E-13,  avg # of iterations =  3.0

     total cpu time spent up to now is      853.4 secs

     total energy              =    -447.58887009 Ry
     Harris-Foulkes estimate   =    -447.58887009 Ry
     estimated scf accuracy    <          5.6E-12 Ry

     iteration # 13     ecut=    75.00 Ry     beta= 0.70
     Davidson diagonalization with overlap
     ethr =  1.00E-13,  avg # of iterations =  1.6

     total cpu time spent up to now is      906.5 secs

     End of self-consistent calculation

     Number of k-points >= 100: set verbosity='high' to print the bands.

     highest occupied level (ev):     9.0664

!    total energy              =    -447.58887009 Ry
     Harris-Foulkes estimate   =    -447.58887009 Ry
     estimated scf accuracy    <          3.0E-13 Ry

     The total energy is the sum of the following terms:

     one-electron contribution =    -124.05012952 Ry
     hartree contribution      =     101.06626908 Ry
     xc contribution           =    -122.12367385 Ry
     ewald contribution        =    -302.48133580 Ry

     convergence has been achieved in  13 iterations

     Forces acting on atoms (cartesian axes, Ry/au):

     atom    1 type  1   force =    -0.00106047   -0.00106047    0.00000000
     atom    2 type  1   force =    -0.00135253   -0.00135253    0.00000000
     atom    3 type  2   force =    -0.00044306    0.00040962    0.00000000
     atom    4 type  2   force =     0.00040962   -0.00044306    0.00000000
     atom    5 type  2   force =     0.00080143    0.00080143    0.00000000
     atom    6 type  2   force =     0.00164502    0.00164502    0.00000000

     Total force =     0.003651     Total SCF correction =     0.000003


     Computing stress (Cartesian axis) and pressure

          total   stress  (Ry/bohr**3)                   (kbar)     P=   16.55
   0.00008728   0.00000011   0.00000000         12.84      0.02      0.00
   0.00000011   0.00008728   0.00000000          0.02     12.84      0.00
   0.00000000  -0.00000000   0.00016295          0.00     -0.00     23.97


     BFGS Geometry Optimization

     number of scf cycles    =   1
     number of bfgs steps    =   0

     enthalpy new            =    -447.5888700936 Ry

     new trust radius        =       0.0183372461 bohr
     new conv_thr            =            1.0E-12 Ry

     new unit-cell volume =    510.84450 a.u.^3 (    75.69934 Ang^3 )
     density =      6.61185 g/cm^3

CELL_PARAMETERS (alat=  9.11000000)
   1.002181995   0.000000000   0.000000000
   0.000000000   1.002181995   0.000000000
   0.000000000   0.000000000   0.672729380

ATOMIC_POSITIONS (crystal)
Sn      -0.000116407  -0.000116407   0.000000000
Sn       0.499851534   0.499851534   0.500000000
O        0.805951365   0.193044964   0.500000000
O        0.193044964   0.805951365   0.500000000
O        0.306087972   0.306087972   0.000000000
O        0.693180573   0.693180573   0.000000000



     Writing output data file SnO2.save
     NEW-OLD atomic charge density approx. for the potential

     Check: negative/imaginary core charge=   -0.000002    0.000000
     extrapolated charge   52.43622, renormalised to   52.00000

     total cpu time spent up to now is      932.0 secs

     Self-consistent Calculation

     iteration #  1     ecut=    75.00 Ry     beta= 0.70
     Davidson diagonalization with overlap
     ethr =  1.00E-06,  avg # of iterations =  4.1

     total cpu time spent up to now is     1035.6 secs

     total energy              =    -447.57893157 Ry
     Harris-Foulkes estimate   =    -446.62739123 Ry
     estimated scf accuracy    <       0.00631610 Ry

     iteration #  2     ecut=    75.00 Ry     beta= 0.70
     Davidson diagonalization with overlap
     ethr =  1.21E-05,  avg # of iterations =  4.0

     total cpu time spent up to now is     1125.0 secs

     total energy              =    -447.58855450 Ry
     Harris-Foulkes estimate   =    -447.59469677 Ry
     estimated scf accuracy    <       0.01681714 Ry

     iteration #  3     ecut=    75.00 Ry     beta= 0.70
     Davidson diagonalization with overlap
     ethr =  1.21E-05,  avg # of iterations =  2.0

     total cpu time spent up to now is     1191.2 secs

     total energy              =    -447.58947382 Ry
     Harris-Foulkes estimate   =    -447.59000370 Ry
     estimated scf accuracy    <       0.00213223 Ry

     iteration #  4     ecut=    75.00 Ry     beta= 0.70
     Davidson diagonalization with overlap
     ethr =  4.10E-06,  avg # of iterations =  1.0

     total cpu time spent up to now is     1244.1 secs

     total energy              =    -447.58909885 Ry
     Harris-Foulkes estimate   =    -447.58952786 Ry
     estimated scf accuracy    <       0.00114241 Ry

     iteration #  5     ecut=    75.00 Ry     beta= 0.70
     Davidson diagonalization with overlap
     ethr =  2.20E-06,  avg # of iterations =  2.0

     total cpu time spent up to now is     1303.7 secs

     total energy              =    -447.58911648 Ry
     Harris-Foulkes estimate   =    -447.58919125 Ry
     estimated scf accuracy    <       0.00016467 Ry

     iteration #  6     ecut=    75.00 Ry     beta= 0.70
     Davidson diagonalization with overlap
     ethr =  3.17E-07,  avg # of iterations =  3.0

     total cpu time spent up to now is     1371.0 secs

     total energy              =    -447.58914074 Ry
     Harris-Foulkes estimate   =    -447.58914291 Ry
     estimated scf accuracy    <       0.00000728 Ry

     iteration #  7     ecut=    75.00 Ry     beta= 0.70
     Davidson diagonalization with overlap
     ethr =  1.40E-08,  avg # of iterations =  2.0

     total cpu time spent up to now is     1430.7 secs

     total energy              =    -447.58913993 Ry
     Harris-Foulkes estimate   =    -447.58914131 Ry
     estimated scf accuracy    <       0.00000389 Ry

     iteration #  8     ecut=    75.00 Ry     beta= 0.70
     Davidson diagonalization with overlap
     ethr =  7.47E-09,  avg # of iterations =  1.2

     total cpu time spent up to now is     1484.0 secs

     total energy              =    -447.58913952 Ry
     Harris-Foulkes estimate   =    -447.58914012 Ry
     estimated scf accuracy    <       0.00000116 Ry

     iteration #  9     ecut=    75.00 Ry     beta= 0.70
     Davidson diagonalization with overlap
     ethr =  2.22E-09,  avg # of iterations =  2.0

     total cpu time spent up to now is     1552.2 secs

     total energy              =    -447.58913977 Ry
     Harris-Foulkes estimate   =    -447.58913977 Ry
     estimated scf accuracy    <          3.8E-09 Ry

     iteration # 10     ecut=    75.00 Ry     beta= 0.70
     Davidson diagonalization with overlap
     ethr =  7.28E-12,  avg # of iterations =  4.0

     total cpu time spent up to now is     1637.4 secs

     total energy              =    -447.58913977 Ry
     Harris-Foulkes estimate   =    -447.58913977 Ry
     estimated scf accuracy    <          4.7E-09 Ry

     iteration # 11     ecut=    75.00 Ry     beta= 0.70
     Davidson diagonalization with overlap
     ethr =  7.28E-12,  avg # of iterations =  2.0

     total cpu time spent up to now is     1694.5 secs

     total energy              =    -447.58913977 Ry
     Harris-Foulkes estimate   =    -447.58913977 Ry
     estimated scf accuracy    <          1.2E-09 Ry

     iteration # 12     ecut=    75.00 Ry     beta= 0.70
     Davidson diagonalization with overlap
     ethr =  2.40E-12,  avg # of iterations =  3.0

     total cpu time spent up to now is     1763.9 secs

     total energy              =    -447.58913977 Ry
     Harris-Foulkes estimate   =    -447.58913977 Ry
     estimated scf accuracy    <          2.9E-11 Ry

     iteration # 13     ecut=    75.00 Ry     beta= 0.70
     Davidson diagonalization with overlap
     ethr =  1.00E-13,  avg # of iterations =  2.0

     total cpu time spent up to now is     1820.6 secs

     total energy              =    -447.58913977 Ry
     Harris-Foulkes estimate   =    -447.58913977 Ry
     estimated scf accuracy    <          1.2E-11 Ry

     iteration # 14     ecut=    75.00 Ry     beta= 0.70
     Davidson diagonalization with overlap
     ethr =  1.00E-13,  avg # of iterations =  1.0

     total cpu time spent up to now is     1873.6 secs

     End of self-consistent calculation

     Number of k-points >= 100: set verbosity='high' to print the bands.

     highest occupied level (ev):     8.9444

!    total energy              =    -447.58913977 Ry
     Harris-Foulkes estimate   =    -447.58913977 Ry
     estimated scf accuracy    <          4.5E-13 Ry

     The total energy is the sum of the following terms:

     one-electron contribution =    -125.19137917 Ry
     hartree contribution      =     101.38415441 Ry
     xc contribution           =    -122.08371002 Ry
     ewald contribution        =    -301.69820499 Ry

     convergence has been achieved in  14 iterations

     Forces acting on atoms (cartesian axes, Ry/au):

     atom    1 type  1   force =    -0.00060083   -0.00060083    0.00000000
     atom    2 type  1   force =    -0.00047099   -0.00047099    0.00000000
     atom    3 type  2   force =     0.00077469   -0.00061415    0.00000000
     atom    4 type  2   force =    -0.00061415    0.00077469    0.00000000
     atom    5 type  2   force =     0.00114890    0.00114890    0.00000000
     atom    6 type  2   force =    -0.00023761   -0.00023761    0.00000000

     Total force =     0.002423     Total SCF correction =     0.000001


     Computing stress (Cartesian axis) and pressure

          total   stress  (Ry/bohr**3)                   (kbar)     P=   -0.41
  -0.00000785   0.00000003   0.00000000         -1.15      0.00      0.00
   0.00000003  -0.00000785   0.00000000          0.00     -1.15      0.00
   0.00000000   0.00000000   0.00000725          0.00      0.00      1.07


     number of scf cycles    =   2
     number of bfgs steps    =   1

     enthalpy old            =    -447.5888700936 Ry
     enthalpy new            =    -447.5891397714 Ry

     CASE: enthalpy_new < enthalpy_old

     new trust radius        =       0.0016488956 bohr
     new conv_thr            =            1.0E-12 Ry

     new unit-cell volume =    510.80027 a.u.^3 (    75.69279 Ang^3 )
     density =      6.61243 g/cm^3

CELL_PARAMETERS (alat=  9.11000000)
   1.002017281   0.000000000   0.000000000
   0.000000000   1.002017281   0.000000000
   0.000000000   0.000000000   0.672892312

ATOMIC_POSITIONS (crystal)
Sn      -0.000184251  -0.000184251   0.000000000
Sn       0.499797492   0.499797492   0.500000000
O        0.806035854   0.192978079   0.500000000
O        0.192978079   0.806035854   0.500000000
O        0.306215679   0.306215679   0.000000000
O        0.693157147   0.693157147   0.000000000



     Writing output data file SnO2.save
     NEW-OLD atomic charge density approx. for the potential

     Check: negative/imaginary core charge=   -0.000002    0.000000
     extrapolated charge   51.99550, renormalised to   52.00000

     total cpu time spent up to now is     1899.1 secs

     Self-consistent Calculation

     iteration #  1     ecut=    75.00 Ry     beta= 0.70
     Davidson diagonalization with overlap
     ethr =  1.00E-06,  avg # of iterations =  3.0

     Threshold (ethr) on eigenvalues was too large:
     Diagonalizing with lowered threshold

     Davidson diagonalization with overlap
     ethr =  2.31E-09,  avg # of iterations =  3.0

     total cpu time spent up to now is     2048.8 secs

     total energy              =    -447.58914497 Ry
     Harris-Foulkes estimate   =    -447.59905951 Ry
     estimated scf accuracy    <       0.00000150 Ry

     iteration #  2     ecut=    75.00 Ry     beta= 0.70
     Davidson diagonalization with overlap
     ethr =  2.88E-09,  avg # of iterations =  3.0

     total cpu time spent up to now is     2131.6 secs

     total energy              =    -447.58914609 Ry
     Harris-Foulkes estimate   =    -447.58914687 Ry
     estimated scf accuracy    <       0.00000178 Ry

     iteration #  3     ecut=    75.00 Ry     beta= 0.70
     Davidson diagonalization with overlap
     ethr =  2.88E-09,  avg # of iterations =  2.0

     total cpu time spent up to now is     2197.3 secs

     total energy              =    -447.58914627 Ry
     Harris-Foulkes estimate   =    -447.58914632 Ry
     estimated scf accuracy    <       0.00000011 Ry

     iteration #  4     ecut=    75.00 Ry     beta= 0.70
     Davidson diagonalization with overlap
     ethr =  2.15E-10,  avg # of iterations =  2.2

     total cpu time spent up to now is     2266.9 secs

     total energy              =    -447.58914627 Ry
     Harris-Foulkes estimate   =    -447.58914629 Ry
     estimated scf accuracy    <       0.00000004 Ry

     iteration #  5     ecut=    75.00 Ry     beta= 0.70
     Davidson diagonalization with overlap
     ethr =  7.56E-11,  avg # of iterations =  3.0

     total cpu time spent up to now is     2335.1 secs

     total energy              =    -447.58914627 Ry
     Harris-Foulkes estimate   =    -447.58914628 Ry
     estimated scf accuracy    <          9.1E-09 Ry

     iteration #  6     ecut=    75.00 Ry     beta= 0.70
     Davidson diagonalization with overlap
     ethr =  1.75E-11,  avg # of iterations =  3.0

     total cpu time spent up to now is     2402.8 secs

     total energy              =    -447.58914628 Ry
     Harris-Foulkes estimate   =    -447.58914628 Ry
     estimated scf accuracy    <          1.6E-10 Ry

     iteration #  7     ecut=    75.00 Ry     beta= 0.70
     Davidson diagonalization with overlap
     ethr =  3.03E-13,  avg # of iterations =  3.1

     total cpu time spent up to now is     2476.7 secs

     total energy              =    -447.58914628 Ry
     Harris-Foulkes estimate   =    -447.58914628 Ry
     estimated scf accuracy    <          3.1E-11 Ry

     iteration #  8     ecut=    75.00 Ry     beta= 0.70
     Davidson diagonalization with overlap
     ethr =  1.00E-13,  avg # of iterations =  2.9

     total cpu time spent up to now is     2540.9 secs

     total energy              =    -447.58914628 Ry
     Harris-Foulkes estimate   =    -447.58914628 Ry
     estimated scf accuracy    <          3.1E-12 Ry

     iteration #  9     ecut=    75.00 Ry     beta= 0.70
     Davidson diagonalization with overlap
     ethr =  1.00E-13,  avg # of iterations =  1.0

     total cpu time spent up to now is     2593.8 secs

     End of self-consistent calculation

     Number of k-points >= 100: set verbosity='high' to print the bands.

     highest occupied level (ev):     8.9455

!    total energy              =    -447.58914628 Ry
     Harris-Foulkes estimate   =    -447.58914628 Ry
     estimated scf accuracy    <          2.5E-13 Ry

     The total energy is the sum of the following terms:

     one-electron contribution =    -125.17120331 Ry
     hartree contribution      =     101.37753506 Ry
     xc contribution           =    -122.08405453 Ry
     ewald contribution        =    -301.71142349 Ry

     convergence has been achieved in   9 iterations

     Forces acting on atoms (cartesian axes, Ry/au):

     atom    1 type  1   force =    -0.00034123   -0.00034123    0.00000000
     atom    2 type  1   force =    -0.00020250   -0.00020250    0.00000000
     atom    3 type  2   force =     0.00052957   -0.00031753    0.00000000
     atom    4 type  2   force =    -0.00031753    0.00052957    0.00000000
     atom    5 type  2   force =     0.00058787    0.00058787    0.00000000
     atom    6 type  2   force =    -0.00025618   -0.00025618    0.00000000

     Total force =     0.001378     Total SCF correction =     0.000001


     Computing stress (Cartesian axis) and pressure

          total   stress  (Ry/bohr**3)                   (kbar)     P=   -0.25
  -0.00000528   0.00000001   0.00000000         -0.78      0.00      0.00
   0.00000001  -0.00000528   0.00000000          0.00     -0.78      0.00
   0.00000000   0.00000000   0.00000538          0.00      0.00      0.79


     number of scf cycles    =   3
     number of bfgs steps    =   2

     enthalpy old            =    -447.5891397714 Ry
     enthalpy new            =    -447.5891462761 Ry

     CASE: enthalpy_new < enthalpy_old

     new trust radius        =       0.0022116687 bohr
     new conv_thr            =            1.0E-12 Ry

     new unit-cell volume =    510.72676 a.u.^3 (    75.68190 Ang^3 )
     density =      6.61338 g/cm^3

CELL_PARAMETERS (alat=  9.11000000)
   1.001724618   0.000000000   0.000000000
   0.000000000   1.001724618   0.000000000
   0.000000000   0.000000000   0.673188657

ATOMIC_POSITIONS (crystal)
Sn      -0.000284690  -0.000284690   0.000000000
Sn       0.499735130   0.499735130   0.500000000
O        0.806185143   0.192887745   0.500000000
O        0.192887745   0.806185143   0.500000000
O        0.306387000   0.306387000   0.000000000
O        0.693089672   0.693089672   0.000000000



     Writing output data file SnO2.save
     NEW-OLD atomic charge density approx. for the potential

     Check: negative/imaginary core charge=   -0.000002    0.000000
     extrapolated charge   51.99252, renormalised to   52.00000

     total cpu time spent up to now is     2619.2 secs

     Self-consistent Calculation

     iteration #  1     ecut=    75.00 Ry     beta= 0.70
     Davidson diagonalization with overlap
     ethr =  1.00E-06,  avg # of iterations =  3.0

     Threshold (ethr) on eigenvalues was too large:
     Diagonalizing with lowered threshold

     Davidson diagonalization with overlap
     ethr =  6.60E-09,  avg # of iterations =  2.2

     total cpu time spent up to now is     2763.5 secs

     total energy              =    -447.58914691 Ry
     Harris-Foulkes estimate   =    -447.60562805 Ry
     estimated scf accuracy    <       0.00000368 Ry

     iteration #  2     ecut=    75.00 Ry     beta= 0.70
     Davidson diagonalization with overlap
     ethr =  7.09E-09,  avg # of iterations =  3.0

     total cpu time spent up to now is     2846.7 secs

     total energy              =    -447.58914988 Ry
     Harris-Foulkes estimate   =    -447.58915187 Ry
     estimated scf accuracy    <       0.00000459 Ry

     iteration #  3     ecut=    75.00 Ry     beta= 0.70
     Davidson diagonalization with overlap
     ethr =  7.09E-09,  avg # of iterations =  2.0

     total cpu time spent up to now is     2912.4 secs

     total energy              =    -447.58915031 Ry
     Harris-Foulkes estimate   =    -447.58915046 Ry
     estimated scf accuracy    <       0.00000031 Ry

     iteration #  4     ecut=    75.00 Ry     beta= 0.70
     Davidson diagonalization with overlap
     ethr =  5.90E-10,  avg # of iterations =  2.0

     total cpu time spent up to now is     2975.7 secs

     total energy              =    -447.58915031 Ry
     Harris-Foulkes estimate   =    -447.58915035 Ry
     estimated scf accuracy    <       0.00000008 Ry

     iteration #  5     ecut=    75.00 Ry     beta= 0.70
     Davidson diagonalization with overlap
     ethr =  1.58E-10,  avg # of iterations =  2.0

     total cpu time spent up to now is     3041.2 secs

     total energy              =    -447.58915032 Ry
     Harris-Foulkes estimate   =    -447.58915032 Ry
     estimated scf accuracy    <          1.4E-09 Ry

     iteration #  6     ecut=    75.00 Ry     beta= 0.70
     Davidson diagonalization with overlap
     ethr =  2.77E-12,  avg # of iterations =  3.2

     total cpu time spent up to now is     3125.3 secs

     total energy              =    -447.58915032 Ry
     Harris-Foulkes estimate   =    -447.58915032 Ry
     estimated scf accuracy    <          9.6E-10 Ry

     iteration #  7     ecut=    75.00 Ry     beta= 0.70
     Davidson diagonalization with overlap
     ethr =  1.85E-12,  avg # of iterations =  2.9

     total cpu time spent up to now is     3190.4 secs

     total energy              =    -447.58915032 Ry
     Harris-Foulkes estimate   =    -447.58915032 Ry
     estimated scf accuracy    <          1.9E-10 Ry

     iteration #  8     ecut=    75.00 Ry     beta= 0.70
     Davidson diagonalization with overlap
     ethr =  3.71E-13,  avg # of iterations =  2.0

     total cpu time spent up to now is     3255.5 secs

     total energy              =    -447.58915032 Ry
     Harris-Foulkes estimate   =    -447.58915032 Ry
     estimated scf accuracy    <          1.1E-11 Ry

     iteration #  9     ecut=    75.00 Ry     beta= 0.70
     Davidson diagonalization with overlap
     ethr =  1.00E-13,  avg # of iterations =  2.0

     total cpu time spent up to now is     3314.3 secs

     total energy              =    -447.58915032 Ry
     Harris-Foulkes estimate   =    -447.58915032 Ry
     estimated scf accuracy    <          2.8E-12 Ry

     iteration # 10     ecut=    75.00 Ry     beta= 0.70
     Davidson diagonalization with overlap
     ethr =  1.00E-13,  avg # of iterations =  1.0

     total cpu time spent up to now is     3367.3 secs

     End of self-consistent calculation

     Number of k-points >= 100: set verbosity='high' to print the bands.

     highest occupied level (ev):     8.9475

!    total energy              =    -447.58915032 Ry
     Harris-Foulkes estimate   =    -447.58915032 Ry
     estimated scf accuracy    <          2.3E-13 Ry

     The total energy is the sum of the following terms:

     one-electron contribution =    -125.13298257 Ry
     hartree contribution      =     101.36421726 Ry
     xc contribution           =    -122.08455652 Ry
     ewald contribution        =    -301.73582849 Ry

     convergence has been achieved in  10 iterations

     Forces acting on atoms (cartesian axes, Ry/au):

     atom    1 type  1   force =     0.00003128    0.00003128    0.00000000
     atom    2 type  1   force =     0.00004116    0.00004116    0.00000000
     atom    3 type  2   force =     0.00011440    0.00011732    0.00000000
     atom    4 type  2   force =     0.00011732    0.00011440    0.00000000
     atom    5 type  2   force =    -0.00015287   -0.00015287    0.00000000
     atom    6 type  2   force =    -0.00015129   -0.00015129    0.00000000

     Total force =     0.000389     Total SCF correction =     0.000000


     Computing stress (Cartesian axis) and pressure

          total   stress  (Ry/bohr**3)                   (kbar)     P=   -0.02
  -0.00000093  -0.00000000   0.00000000         -0.14     -0.00      0.00
  -0.00000000  -0.00000093  -0.00000000         -0.00     -0.14     -0.00
  -0.00000000   0.00000000   0.00000148         -0.00      0.00      0.22


     number of scf cycles    =   4
     number of bfgs steps    =   3

     enthalpy old            =    -447.5891462761 Ry
     enthalpy new            =    -447.5891503235 Ry

     CASE: enthalpy_new < enthalpy_old

     new trust radius        =       0.0002742682 bohr
     new conv_thr            =            1.0E-12 Ry

     new unit-cell volume =    510.71767 a.u.^3 (    75.68055 Ang^3 )
     density =      6.61350 g/cm^3

CELL_PARAMETERS (alat=  9.11000000)
   1.001685310   0.000000000   0.000000000
   0.000000000   1.001685310   0.000000000
   0.000000000   0.000000000   0.673229506

ATOMIC_POSITIONS (crystal)
Sn      -0.000286661  -0.000286661   0.000000000
Sn       0.499735897   0.499735897   0.500000000
O        0.806205863   0.192895969   0.500000000
O        0.192895969   0.806205863   0.500000000
O        0.306379439   0.306379439   0.000000000
O        0.693069493   0.693069493   0.000000000



     Writing output data file SnO2.save
     NEW-OLD atomic charge density approx. for the potential

     Check: negative/imaginary core charge=   -0.000002    0.000000
     extrapolated charge   51.99907, renormalised to   52.00000

     total cpu time spent up to now is     3392.6 secs

     Self-consistent Calculation

     iteration #  1     ecut=    75.00 Ry     beta= 0.70
     Davidson diagonalization with overlap
     ethr =  1.00E-06,  avg # of iterations =  1.1

     Threshold (ethr) on eigenvalues was too large:
     Diagonalizing with lowered threshold

     Davidson diagonalization with overlap
     ethr =  1.39E-10,  avg # of iterations =  4.1

     total cpu time spent up to now is     3541.2 secs

     total energy              =    -447.58915045 Ry
     Harris-Foulkes estimate   =    -447.59118846 Ry
     estimated scf accuracy    <       0.00000005 Ry

     iteration #  2     ecut=    75.00 Ry     beta= 0.70
     Davidson diagonalization with overlap
     ethr =  9.89E-11,  avg # of iterations =  3.2

     total cpu time spent up to now is     3625.6 secs

     total energy              =    -447.58915049 Ry
     Harris-Foulkes estimate   =    -447.58915052 Ry
     estimated scf accuracy    <       0.00000007 Ry

     iteration #  3     ecut=    75.00 Ry     beta= 0.70
     Davidson diagonalization with overlap
     ethr =  9.89E-11,  avg # of iterations =  2.0

     total cpu time spent up to now is     3691.5 secs

     total energy              =    -447.58915050 Ry
     Harris-Foulkes estimate   =    -447.58915050 Ry
     estimated scf accuracy    <          5.6E-09 Ry

     iteration #  4     ecut=    75.00 Ry     beta= 0.70
     Davidson diagonalization with overlap
     ethr =  1.08E-11,  avg # of iterations =  2.3

     total cpu time spent up to now is     3761.5 secs

     total energy              =    -447.58915050 Ry
     Harris-Foulkes estimate   =    -447.58915050 Ry
     estimated scf accuracy    <          2.2E-09 Ry

     iteration #  5     ecut=    75.00 Ry     beta= 0.70
     Davidson diagonalization with overlap
     ethr =  4.29E-12,  avg # of iterations =  3.0

     total cpu time spent up to now is     3828.3 secs

     total energy              =    -447.58915050 Ry
     Harris-Foulkes estimate   =    -447.58915050 Ry
     estimated scf accuracy    <          4.5E-10 Ry

     iteration #  6     ecut=    75.00 Ry     beta= 0.70
     Davidson diagonalization with overlap
     ethr =  8.65E-13,  avg # of iterations =  2.8

     total cpu time spent up to now is     3895.8 secs

     total energy              =    -447.58915050 Ry
     Harris-Foulkes estimate   =    -447.58915050 Ry
     estimated scf accuracy    <          7.2E-12 Ry

     iteration #  7     ecut=    75.00 Ry     beta= 0.70
     Davidson diagonalization with overlap
     ethr =  1.00E-13,  avg # of iterations =  1.6

     total cpu time spent up to now is     3950.2 secs

     End of self-consistent calculation

     Number of k-points >= 100: set verbosity='high' to print the bands.

     highest occupied level (ev):     8.9477

!    total energy              =    -447.58915050 Ry
     Harris-Foulkes estimate   =    -447.58915050 Ry
     estimated scf accuracy    <          7.0E-13 Ry

     The total energy is the sum of the following terms:

     one-electron contribution =    -125.12578404 Ry
     hartree contribution      =     101.36130171 Ry
     xc contribution           =    -122.08457975 Ry
     ewald contribution        =    -301.74008843 Ry

     convergence has been achieved in   7 iterations

     Forces acting on atoms (cartesian axes, Ry/au):

     atom    1 type  1   force =     0.00001721    0.00001721    0.00000000
     atom    2 type  1   force =    -0.00000976   -0.00000976    0.00000000
     atom    3 type  2   force =     0.00007783    0.00011924    0.00000000
     atom    4 type  2   force =     0.00011924    0.00007783    0.00000000
     atom    5 type  2   force =    -0.00012289   -0.00012289    0.00000000
     atom    6 type  2   force =    -0.00008163   -0.00008163    0.00000000

     Total force =     0.000291     Total SCF correction =     0.000005


     Computing stress (Cartesian axis) and pressure

          total   stress  (Ry/bohr**3)                   (kbar)     P=   -0.01
  -0.00000044  -0.00000000   0.00000000         -0.06     -0.00      0.00
  -0.00000000  -0.00000044   0.00000000         -0.00     -0.06      0.00
   0.00000000   0.00000000   0.00000071          0.00      0.00      0.10


     number of scf cycles    =   5
     number of bfgs steps    =   4

     enthalpy old            =    -447.5891503235 Ry
     enthalpy new            =    -447.5891505003 Ry

     CASE: enthalpy_new < enthalpy_old

     new trust radius        =       0.0004113737 bohr
     new conv_thr            =            1.0E-12 Ry

     new unit-cell volume =    510.70376 a.u.^3 (    75.67849 Ang^3 )
     density =      6.61368 g/cm^3

CELL_PARAMETERS (alat=  9.11000000)
   1.001632656   0.000000000   0.000000000
   0.000000000   1.001632656   0.000000000
   0.000000000   0.000000000   0.673281956

ATOMIC_POSITIONS (crystal)
Sn      -0.000287124  -0.000287124   0.000000000
Sn       0.499730259   0.499730259   0.500000000
O        0.806239385   0.192926110   0.500000000
O        0.192926110   0.806239385   0.500000000
O        0.306352382   0.306352382   0.000000000
O        0.693038987   0.693038987   0.000000000



     Writing output data file SnO2.save
     NEW-OLD atomic charge density approx. for the potential

     Check: negative/imaginary core charge=   -0.000002    0.000000
     extrapolated charge   51.99858, renormalised to   52.00000

     total cpu time spent up to now is     3975.6 secs

     Self-consistent Calculation

     iteration #  1     ecut=    75.00 Ry     beta= 0.70
     Davidson diagonalization with overlap
     ethr =  1.00E-06,  avg # of iterations =  2.0

     Threshold (ethr) on eigenvalues was too large:
     Diagonalizing with lowered threshold

     Davidson diagonalization with overlap
     ethr =  2.45E-10,  avg # of iterations =  3.8

     total cpu time spent up to now is     4128.4 secs

     total energy              =    -447.58915055 Ry
     Harris-Foulkes estimate   =    -447.59226744 Ry
     estimated scf accuracy    <       0.00000014 Ry

     iteration #  2     ecut=    75.00 Ry     beta= 0.70
     Davidson diagonalization with overlap
     ethr =  2.63E-10,  avg # of iterations =  3.1

     total cpu time spent up to now is     4212.2 secs

     total energy              =    -447.58915065 Ry
     Harris-Foulkes estimate   =    -447.58915072 Ry
     estimated scf accuracy    <       0.00000017 Ry

     iteration #  3     ecut=    75.00 Ry     beta= 0.70
     Davidson diagonalization with overlap
     ethr =  2.63E-10,  avg # of iterations =  2.0

     total cpu time spent up to now is     4278.0 secs

     total energy              =    -447.58915066 Ry
     Harris-Foulkes estimate   =    -447.58915067 Ry
     estimated scf accuracy    <       0.00000001 Ry

     iteration #  4     ecut=    75.00 Ry     beta= 0.70
     Davidson diagonalization with overlap
     ethr =  2.31E-11,  avg # of iterations =  2.7

     total cpu time spent up to now is     4350.6 secs

     total energy              =    -447.58915067 Ry
     Harris-Foulkes estimate   =    -447.58915067 Ry
     estimated scf accuracy    <          5.1E-09 Ry

     iteration #  5     ecut=    75.00 Ry     beta= 0.70
     Davidson diagonalization with overlap
     ethr =  9.72E-12,  avg # of iterations =  3.1

     total cpu time spent up to now is     4419.3 secs

     total energy              =    -447.58915067 Ry
     Harris-Foulkes estimate   =    -447.58915067 Ry
     estimated scf accuracy    <          1.2E-09 Ry

     iteration #  6     ecut=    75.00 Ry     beta= 0.70
     Davidson diagonalization with overlap
     ethr =  2.33E-12,  avg # of iterations =  2.8

     total cpu time spent up to now is     4486.8 secs

     total energy              =    -447.58915067 Ry
     Harris-Foulkes estimate   =    -447.58915067 Ry
     estimated scf accuracy    <          1.9E-11 Ry

     iteration #  7     ecut=    75.00 Ry     beta= 0.70
     Davidson diagonalization with overlap
     ethr =  1.00E-13,  avg # of iterations =  2.2

     total cpu time spent up to now is     4550.8 secs

     total energy              =    -447.58915067 Ry
     Harris-Foulkes estimate   =    -447.58915067 Ry
     estimated scf accuracy    <          2.2E-12 Ry

     iteration #  8     ecut=    75.00 Ry     beta= 0.70
     Davidson diagonalization with overlap
     ethr =  1.00E-13,  avg # of iterations =  1.0

     total cpu time spent up to now is     4603.6 secs

     End of self-consistent calculation

     Number of k-points >= 100: set verbosity='high' to print the bands.

     highest occupied level (ev):     8.9482

!    total energy              =    -447.58915067 Ry
     Harris-Foulkes estimate   =    -447.58915067 Ry
     estimated scf accuracy    <          1.7E-13 Ry

     The total energy is the sum of the following terms:

     one-electron contribution =    -125.11432855 Ry
     hartree contribution      =     101.35654472 Ry
     xc contribution           =    -122.08459983 Ry
     ewald contribution        =    -301.74676700 Ry

     convergence has been achieved in   8 iterations

     Forces acting on atoms (cartesian axes, Ry/au):

     atom    1 type  1   force =    -0.00003122   -0.00003122    0.00000000
     atom    2 type  1   force =    -0.00008080   -0.00008080    0.00000000
     atom    3 type  2   force =     0.00004053    0.00008398    0.00000000
     atom    4 type  2   force =     0.00008398    0.00004053    0.00000000
     atom    5 type  2   force =    -0.00002813   -0.00002813    0.00000000
     atom    6 type  2   force =     0.00001565    0.00001565    0.00000000

     Total force =     0.000186     Total SCF correction =     0.000001


     Computing stress (Cartesian axis) and pressure

          total   stress  (Ry/bohr**3)                   (kbar)     P=   -0.00
   0.00000017   0.00000000   0.00000000          0.03      0.00      0.00
   0.00000000   0.00000017   0.00000000          0.00      0.03      0.00
  -0.00000000   0.00000000  -0.00000040         -0.00      0.00     -0.06


     number of scf cycles    =   6
     number of bfgs steps    =   5

     enthalpy old            =    -447.5891505003 Ry
     enthalpy new            =    -447.5891506662 Ry

     CASE: enthalpy_new < enthalpy_old

     new trust radius        =       0.0002421132 bohr
     new conv_thr            =            1.0E-12 Ry

     new unit-cell volume =    510.69775 a.u.^3 (    75.67760 Ang^3 )
     density =      6.61375 g/cm^3

CELL_PARAMETERS (alat=  9.11000000)
   1.001619884   0.000000000   0.000000000
   0.000000000   1.001619884   0.000000000
   0.000000000   0.000000000   0.673291207

ATOMIC_POSITIONS (crystal)
Sn      -0.000291074  -0.000291074   0.000000000
Sn       0.499718683   0.499718683   0.500000000
O        0.806255726   0.192947015   0.500000000
O        0.192947015   0.806255726   0.500000000
O        0.306339243   0.306339243   0.000000000
O        0.693030407   0.693030407   0.000000000



     Writing output data file SnO2.save
     NEW-OLD atomic charge density approx. for the potential

     Check: negative/imaginary core charge=   -0.000002    0.000000
     extrapolated charge   51.99939, renormalised to   52.00000

     total cpu time spent up to now is     4629.1 secs

     Self-consistent Calculation

     iteration #  1     ecut=    75.00 Ry     beta= 0.70
     Davidson diagonalization with overlap
     ethr =  1.00E-06,  avg # of iterations =  1.3

     Threshold (ethr) on eigenvalues was too large:
     Diagonalizing with lowered threshold

     Davidson diagonalization with overlap
     ethr =  4.08E-10,  avg # of iterations =  3.3

     total cpu time spent up to now is     4771.8 secs

     total energy              =    -447.58915069 Ry
     Harris-Foulkes estimate   =    -447.59049703 Ry
     estimated scf accuracy    <       0.00000003 Ry

     iteration #  2     ecut=    75.00 Ry     beta= 0.70
     Davidson diagonalization with overlap
     ethr =  5.56E-11,  avg # of iterations =  3.1

     total cpu time spent up to now is     4856.2 secs

     total energy              =    -447.58915071 Ry
     Harris-Foulkes estimate   =    -447.58915073 Ry
     estimated scf accuracy    <       0.00000003 Ry

     iteration #  3     ecut=    75.00 Ry     beta= 0.70
     Davidson diagonalization with overlap
     ethr =  5.56E-11,  avg # of iterations =  2.0

     total cpu time spent up to now is     4921.6 secs

     total energy              =    -447.58915072 Ry
     Harris-Foulkes estimate   =    -447.58915072 Ry
     estimated scf accuracy    <          1.8E-09 Ry

     iteration #  4     ecut=    75.00 Ry     beta= 0.70
     Davidson diagonalization with overlap
     ethr =  3.47E-12,  avg # of iterations =  2.0

     total cpu time spent up to now is     4988.4 secs

     total energy              =    -447.58915072 Ry
     Harris-Foulkes estimate   =    -447.58915072 Ry
     estimated scf accuracy    <          4.1E-10 Ry

     iteration #  5     ecut=    75.00 Ry     beta= 0.70
     Davidson diagonalization with overlap
     ethr =  7.89E-13,  avg # of iterations =  2.8

     total cpu time spent up to now is     5055.4 secs

     total energy              =    -447.58915072 Ry
     Harris-Foulkes estimate   =    -447.58915072 Ry
     estimated scf accuracy    <          4.3E-11 Ry

     iteration #  6     ecut=    75.00 Ry     beta= 0.70
     Davidson diagonalization with overlap
     ethr =  1.00E-13,  avg # of iterations =  3.1

     total cpu time spent up to now is     5123.8 secs

     total energy              =    -447.58915072 Ry
     Harris-Foulkes estimate   =    -447.58915072 Ry
     estimated scf accuracy    <          7.1E-12 Ry

     iteration #  7     ecut=    75.00 Ry     beta= 0.70
     Davidson diagonalization with overlap
     ethr =  1.00E-13,  avg # of iterations =  1.0

     total cpu time spent up to now is     5176.4 secs

     End of self-consistent calculation

     Number of k-points >= 100: set verbosity='high' to print the bands.

     highest occupied level (ev):     8.9484

!    total energy              =    -447.58915072 Ry
     Harris-Foulkes estimate   =    -447.58915072 Ry
     estimated scf accuracy    <          3.7E-13 Ry

     The total energy is the sum of the following terms:

     one-electron contribution =    -125.11048414 Ry
     hartree contribution      =     101.35499416 Ry
     xc contribution           =    -122.08462277 Ry
     ewald contribution        =    -301.74903796 Ry

     convergence has been achieved in   7 iterations

     Forces acting on atoms (cartesian axes, Ry/au):

     atom    1 type  1   force =    -0.00005166   -0.00005166    0.00000000
     atom    2 type  1   force =    -0.00007420   -0.00007420    0.00000000
     atom    3 type  2   force =     0.00003325    0.00005820    0.00000000
     atom    4 type  2   force =     0.00005820    0.00003325    0.00000000
     atom    5 type  2   force =     0.00000454    0.00000454    0.00000000
     atom    6 type  2   force =     0.00002988    0.00002988    0.00000000

     Total force =     0.000165     Total SCF correction =     0.000003


     Computing stress (Cartesian axis) and pressure

          total   stress  (Ry/bohr**3)                   (kbar)     P=    0.01
   0.00000035  -0.00000000   0.00000000          0.05     -0.00      0.00
  -0.00000000   0.00000035   0.00000000         -0.00      0.05      0.00
   0.00000000   0.00000000  -0.00000058          0.00      0.00     -0.09


     number of scf cycles    =   7
     number of bfgs steps    =   6

     enthalpy old            =    -447.5891506662 Ry
     enthalpy new            =    -447.5891507161 Ry

     CASE: enthalpy_new < enthalpy_old

     new trust radius        =       0.0002663211 bohr
     new conv_thr            =            1.0E-12 Ry

     new unit-cell volume =    510.69468 a.u.^3 (    75.67714 Ang^3 )
     density =      6.61379 g/cm^3

CELL_PARAMETERS (alat=  9.11000000)
   1.001616785   0.000000000   0.000000000
   0.000000000   1.001616785   0.000000000
   0.000000000   0.000000000   0.673291326

ATOMIC_POSITIONS (crystal)
Sn      -0.000299920  -0.000299920   0.000000000
Sn       0.499702856   0.499702856   0.500000000
O        0.806273396   0.192970245   0.500000000
O        0.192970245   0.806273396   0.500000000
O        0.306328341   0.306328341   0.000000000
O        0.693025083   0.693025083   0.000000000



     Writing output data file SnO2.save
     NEW-OLD atomic charge density approx. for the potential

     Check: negative/imaginary core charge=   -0.000002    0.000000
     extrapolated charge   51.99969, renormalised to   52.00000

     total cpu time spent up to now is     5201.8 secs

     Self-consistent Calculation

     iteration #  1     ecut=    75.00 Ry     beta= 0.70
     Davidson diagonalization with overlap
     ethr =  1.00E-06,  avg # of iterations =  2.0

     Threshold (ethr) on eigenvalues was too large:
     Diagonalizing with lowered threshold

     Davidson diagonalization with overlap
     ethr =  2.34E-10,  avg # of iterations =  3.6

     total cpu time spent up to now is     5346.0 secs

     total energy              =    -447.58915076 Ry
     Harris-Foulkes estimate   =    -447.58983896 Ry
     estimated scf accuracy    <       0.00000002 Ry

     iteration #  2     ecut=    75.00 Ry     beta= 0.70
     Davidson diagonalization with overlap
     ethr =  4.26E-11,  avg # of iterations =  2.8

     total cpu time spent up to now is     5421.2 secs

     total energy              =    -447.58915076 Ry
     Harris-Foulkes estimate   =    -447.58915077 Ry
     estimated scf accuracy    <          8.4E-09 Ry

     iteration #  3     ecut=    75.00 Ry     beta= 0.70
     Davidson diagonalization with overlap
     ethr =  1.61E-11,  avg # of iterations =  2.0

     total cpu time spent up to now is     5490.2 secs

     total energy              =    -447.58915077 Ry
     Harris-Foulkes estimate   =    -447.58915077 Ry
     estimated scf accuracy    <          4.8E-10 Ry

     iteration #  4     ecut=    75.00 Ry     beta= 0.70
     Davidson diagonalization with overlap
     ethr =  9.32E-13,  avg # of iterations =  2.8

     total cpu time spent up to now is     5565.7 secs

     total energy              =    -447.58915077 Ry
     Harris-Foulkes estimate   =    -447.58915077 Ry
     estimated scf accuracy    <          6.9E-11 Ry

     iteration #  5     ecut=    75.00 Ry     beta= 0.70
     Davidson diagonalization with overlap
     ethr =  1.32E-13,  avg # of iterations =  2.9

     total cpu time spent up to now is     5634.4 secs

     total energy              =    -447.58915077 Ry
     Harris-Foulkes estimate   =    -447.58915077 Ry
     estimated scf accuracy    <          9.6E-12 Ry

     iteration #  6     ecut=    75.00 Ry     beta= 0.70
     Davidson diagonalization with overlap
     ethr =  1.00E-13,  avg # of iterations =  2.1

     total cpu time spent up to now is     5693.5 secs

     total energy              =    -447.58915077 Ry
     Harris-Foulkes estimate   =    -447.58915077 Ry
     estimated scf accuracy    <          3.4E-12 Ry

     iteration #  7     ecut=    75.00 Ry     beta= 0.70
     Davidson diagonalization with overlap
     ethr =  1.00E-13,  avg # of iterations =  1.0

     total cpu time spent up to now is     5745.8 secs

     End of self-consistent calculation

     Number of k-points >= 100: set verbosity='high' to print the bands.

     highest occupied level (ev):     8.9485

!    total energy              =    -447.58915077 Ry
     Harris-Foulkes estimate   =    -447.58915077 Ry
     estimated scf accuracy    <          2.0E-13 Ry

     The total energy is the sum of the following terms:

     one-electron contribution =    -125.10876787 Ry
     hartree contribution      =     101.35430392 Ry
     xc contribution           =    -122.08463590 Ry
     ewald contribution        =    -301.75005092 Ry

     convergence has been achieved in   7 iterations

     Forces acting on atoms (cartesian axes, Ry/au):

     atom    1 type  1   force =    -0.00005334   -0.00005334    0.00000000
     atom    2 type  1   force =    -0.00005114   -0.00005114    0.00000000
     atom    3 type  2   force =     0.00002735    0.00003174    0.00000000
     atom    4 type  2   force =     0.00003174    0.00002735    0.00000000
     atom    5 type  2   force =     0.00002024    0.00002024    0.00000000
     atom    6 type  2   force =     0.00002515    0.00002515    0.00000000

     Total force =     0.000129     Total SCF correction =     0.000002


     Computing stress (Cartesian axis) and pressure

          total   stress  (Ry/bohr**3)                   (kbar)     P=    0.01
   0.00000039   0.00000000   0.00000000          0.06      0.00      0.00
   0.00000000   0.00000039   0.00000000          0.00      0.06      0.00
   0.00000000   0.00000000  -0.00000060          0.00      0.00     -0.09


     number of scf cycles    =   8
     number of bfgs steps    =   7

     enthalpy old            =    -447.5891507161 Ry
     enthalpy new            =    -447.5891507652 Ry

     CASE: enthalpy_new < enthalpy_old

     new trust radius        =       0.0003994804 bohr
     new conv_thr            =            1.0E-12 Ry

     new unit-cell volume =    510.69423 a.u.^3 (    75.67708 Ang^3 )
     density =      6.61380 g/cm^3

CELL_PARAMETERS (alat=  9.11000000)
   1.001624863   0.000000000   0.000000000
   0.000000000   1.001624863   0.000000000
   0.000000000   0.000000000   0.673279870

ATOMIC_POSITIONS (crystal)
Sn      -0.000318236  -0.000318236   0.000000000
Sn       0.499677280   0.499677280   0.500000000
O        0.806300592   0.193004553   0.500000000
O        0.193004553   0.806300592   0.500000000
O        0.306315933   0.306315933   0.000000000
O        0.693019878   0.693019878   0.000000000



     Writing output data file SnO2.save
     NEW-OLD atomic charge density approx. for the potential

     Check: negative/imaginary core charge=   -0.000002    0.000000
     extrapolated charge   51.99995, renormalised to   52.00000

     total cpu time spent up to now is     5770.3 secs

     Self-consistent Calculation

     iteration #  1     ecut=    75.00 Ry     beta= 0.70
     Davidson diagonalization with overlap
     ethr =  1.00E-06,  avg # of iterations =  2.0

     Threshold (ethr) on eigenvalues was too large:
     Diagonalizing with lowered threshold

     Davidson diagonalization with overlap
     ethr =  5.00E-11,  avg # of iterations =  4.5

     total cpu time spent up to now is     5933.2 secs

     total energy              =    -447.58915081 Ry
     Harris-Foulkes estimate   =    -447.58925203 Ry
     estimated scf accuracy    <       0.00000004 Ry

     iteration #  2     ecut=    75.00 Ry     beta= 0.70
     Davidson diagonalization with overlap
     ethr =  8.07E-11,  avg # of iterations =  2.0

     total cpu time spent up to now is     5996.0 secs

     total energy              =    -447.58915081 Ry
     Harris-Foulkes estimate   =    -447.58915081 Ry
     estimated scf accuracy    <          2.8E-09 Ry

     iteration #  3     ecut=    75.00 Ry     beta= 0.70
     Davidson diagonalization with overlap
     ethr =  5.30E-12,  avg # of iterations =  2.1

     total cpu time spent up to now is     6067.5 secs

     total energy              =    -447.58915081 Ry
     Harris-Foulkes estimate   =    -447.58915081 Ry
     estimated scf accuracy    <          4.5E-10 Ry

     iteration #  4     ecut=    75.00 Ry     beta= 0.70
     Davidson diagonalization with overlap
     ethr =  8.60E-13,  avg # of iterations =  2.1

     total cpu time spent up to now is     6137.6 secs

     total energy              =    -447.58915081 Ry
     Harris-Foulkes estimate   =    -447.58915081 Ry
     estimated scf accuracy    <          3.0E-11 Ry

     iteration #  5     ecut=    75.00 Ry     beta= 0.70
     Davidson diagonalization with overlap
     ethr =  1.00E-13,  avg # of iterations =  3.0

     total cpu time spent up to now is     6207.9 secs

     total energy              =    -447.58915081 Ry
     Harris-Foulkes estimate   =    -447.58915081 Ry
     estimated scf accuracy    <          1.4E-11 Ry

     iteration #  6     ecut=    75.00 Ry     beta= 0.70
     Davidson diagonalization with overlap
     ethr =  1.00E-13,  avg # of iterations =  2.0

     total cpu time spent up to now is     6266.4 secs

     End of self-consistent calculation

     Number of k-points >= 100: set verbosity='high' to print the bands.

     highest occupied level (ev):     8.9485

!    total energy              =    -447.58915081 Ry
     Harris-Foulkes estimate   =    -447.58915081 Ry
     estimated scf accuracy    <          4.3E-13 Ry

     The total energy is the sum of the following terms:

     one-electron contribution =    -125.10933041 Ry
     hartree contribution      =     101.35456578 Ry
     xc contribution           =    -122.08464761 Ry
     ewald contribution        =    -301.74973857 Ry

     convergence has been achieved in   6 iterations

     Forces acting on atoms (cartesian axes, Ry/au):

     atom    1 type  1   force =    -0.00003505   -0.00003505    0.00000000
     atom    2 type  1   force =    -0.00000753   -0.00000753    0.00000000
     atom    3 type  2   force =     0.00001688   -0.00000258    0.00000000
     atom    4 type  2   force =    -0.00000258    0.00001688    0.00000000
     atom    5 type  2   force =     0.00002388    0.00002388    0.00000000
     atom    6 type  2   force =     0.00000439    0.00000439    0.00000000

     Total force =     0.000066     Total SCF correction =     0.000001


     Computing stress (Cartesian axis) and pressure

          total   stress  (Ry/bohr**3)                   (kbar)     P=    0.01
   0.00000032   0.00000000   0.00000000          0.05      0.00      0.00
   0.00000000   0.00000032  -0.00000000          0.00      0.05     -0.00
   0.00000000  -0.00000000  -0.00000036          0.00     -0.00     -0.05


     number of scf cycles    =   9
     number of bfgs steps    =   8

     enthalpy old            =    -447.5891507652 Ry
     enthalpy new            =    -447.5891508143 Ry

     CASE: enthalpy_new < enthalpy_old

     new trust radius        =       0.0001386548 bohr
     new conv_thr            =            1.0E-12 Ry

     new unit-cell volume =    510.69861 a.u.^3 (    75.67773 Ang^3 )
     density =      6.61374 g/cm^3

CELL_PARAMETERS (alat=  9.11000000)
   1.001637330   0.000000000   0.000000000
   0.000000000   1.001637330   0.000000000
   0.000000000   0.000000000   0.673268883

ATOMIC_POSITIONS (crystal)
Sn      -0.000328189  -0.000328189   0.000000000
Sn       0.499668258   0.499668258   0.500000000
O        0.806311231   0.193015403   0.500000000
O        0.193015403   0.806311231   0.500000000
O        0.306314564   0.306314564   0.000000000
O        0.693018734   0.693018734   0.000000000



     Writing output data file SnO2.save
     NEW-OLD atomic charge density approx. for the potential

     Check: negative/imaginary core charge=   -0.000002    0.000000
     extrapolated charge   52.00045, renormalised to   52.00000

     total cpu time spent up to now is     6291.7 secs

     Self-consistent Calculation

     iteration #  1     ecut=    75.00 Ry     beta= 0.70
     Davidson diagonalization with overlap
     ethr =  1.00E-06,  avg # of iterations =  1.1

     Threshold (ethr) on eigenvalues was too large:
     Diagonalizing with lowered threshold

     Davidson diagonalization with overlap
     ethr =  3.05E-10,  avg # of iterations =  3.0

     total cpu time spent up to now is     6431.9 secs

     total energy              =    -447.58915081 Ry
     Harris-Foulkes estimate   =    -447.58816920 Ry
     estimated scf accuracy    <       0.00000001 Ry

     iteration #  2     ecut=    75.00 Ry     beta= 0.70
     Davidson diagonalization with overlap
     ethr =  2.08E-11,  avg # of iterations =  3.9

     total cpu time spent up to now is     6518.7 secs

     total energy              =    -447.58915082 Ry
     Harris-Foulkes estimate   =    -447.58915083 Ry
     estimated scf accuracy    <       0.00000002 Ry

     iteration #  3     ecut=    75.00 Ry     beta= 0.70
     Davidson diagonalization with overlap
     ethr =  2.08E-11,  avg # of iterations =  2.0

     total cpu time spent up to now is     6585.7 secs

     total energy              =    -447.58915082 Ry
     Harris-Foulkes estimate   =    -447.58915083 Ry
     estimated scf accuracy    <          1.3E-09 Ry

     iteration #  4     ecut=    75.00 Ry     beta= 0.70
     Davidson diagonalization with overlap
     ethr =  2.42E-12,  avg # of iterations =  2.0

     total cpu time spent up to now is     6649.6 secs

     total energy              =    -447.58915082 Ry
     Harris-Foulkes estimate   =    -447.58915082 Ry
     estimated scf accuracy    <          3.1E-10 Ry

     iteration #  5     ecut=    75.00 Ry     beta= 0.70
     Davidson diagonalization with overlap
     ethr =  5.91E-13,  avg # of iterations =  2.0

     total cpu time spent up to now is     6716.8 secs

     total energy              =    -447.58915082 Ry
     Harris-Foulkes estimate   =    -447.58915082 Ry
     estimated scf accuracy    <          2.3E-12 Ry

     iteration #  6     ecut=    75.00 Ry     beta= 0.70
     Davidson diagonalization with overlap
     ethr =  1.00E-13,  avg # of iterations =  1.2

     total cpu time spent up to now is     6769.8 secs

     End of self-consistent calculation

     Number of k-points >= 100: set verbosity='high' to print the bands.

     highest occupied level (ev):     8.9484

!    total energy              =    -447.58915082 Ry
     Harris-Foulkes estimate   =    -447.58915082 Ry
     estimated scf accuracy    <          7.0E-13 Ry

     The total energy is the sum of the following terms:

     one-electron contribution =    -125.11229811 Ry
     hartree contribution      =     101.35575515 Ry
     xc contribution           =    -122.08463085 Ry
     ewald contribution        =    -301.74797702 Ry

     convergence has been achieved in   6 iterations

     Forces acting on atoms (cartesian axes, Ry/au):

     atom    1 type  1   force =    -0.00001149   -0.00001149    0.00000000
     atom    2 type  1   force =     0.00000795    0.00000795    0.00000000
     atom    3 type  2   force =     0.00000881   -0.00000922    0.00000000
     atom    4 type  2   force =    -0.00000922    0.00000881   -0.00000000
     atom    5 type  2   force =     0.00001098    0.00001098    0.00000000
     atom    6 type  2   force =    -0.00000704   -0.00000704    0.00000000

     Total force =     0.000033     Total SCF correction =     0.000002


     Computing stress (Cartesian axis) and pressure

          total   stress  (Ry/bohr**3)                   (kbar)     P=    0.01
   0.00000014  -0.00000000  -0.00000000          0.02     -0.00     -0.00
  -0.00000000   0.00000014   0.00000000         -0.00      0.02      0.00
   0.00000000  -0.00000000  -0.00000016          0.00     -0.00     -0.02


     number of scf cycles    =  10
     number of bfgs steps    =   9

     enthalpy old            =    -447.5891508143 Ry
     enthalpy new            =    -447.5891508246 Ry

     CASE: enthalpy_new < enthalpy_old

     small trust_radius: resetting bfgs history

     new trust radius        =       0.0000181071 bohr
     new conv_thr            =            1.0E-12 Ry

     new unit-cell volume =    510.70021 a.u.^3 (    75.67796 Ang^3 )
     density =      6.61372 g/cm^3

CELL_PARAMETERS (alat=  9.11000000)
   1.001640906   0.000000000   0.000000000
   0.000000000   1.001640906   0.000000000
   0.000000000   0.000000000   0.673266186

ATOMIC_POSITIONS (crystal)
Sn      -0.000329449  -0.000329449   0.000000000
Sn       0.499669129   0.499669129   0.500000000
O        0.806312196   0.193014393   0.500000000
O        0.193014393   0.806312196   0.500000000
O        0.306315768   0.306315768   0.000000000
O        0.693017963   0.693017963   0.000000000



     Writing output data file SnO2.save
     NEW-OLD atomic charge density approx. for the potential

     Check: negative/imaginary core charge=   -0.000002    0.000000
     extrapolated charge   52.00016, renormalised to   52.00000

     total cpu time spent up to now is     6795.2 secs

     Self-consistent Calculation

     iteration #  1     ecut=    75.00 Ry     beta= 0.70
     Davidson diagonalization with overlap
     ethr =  1.00E-06,  avg # of iterations =  1.0

     Threshold (ethr) on eigenvalues was too large:
     Diagonalizing with lowered threshold

     Davidson diagonalization with overlap
     ethr =  8.53E-12,  avg # of iterations =  3.2

     total cpu time spent up to now is     6934.7 secs

     total energy              =    -447.58915082 Ry
     Harris-Foulkes estimate   =    -447.58879229 Ry
     estimated scf accuracy    <          7.9E-10 Ry

     iteration #  2     ecut=    75.00 Ry     beta= 0.70
     Davidson diagonalization with overlap
     ethr =  1.52E-12,  avg # of iterations =  4.0

     total cpu time spent up to now is     7027.6 secs

     total energy              =    -447.58915083 Ry
     Harris-Foulkes estimate   =    -447.58915083 Ry
     estimated scf accuracy    <          2.1E-09 Ry

     iteration #  3     ecut=    75.00 Ry     beta= 0.70
     Davidson diagonalization with overlap
     ethr =  1.52E-12,  avg # of iterations =  2.0

     total cpu time spent up to now is     7094.8 secs

     total energy              =    -447.58915083 Ry
     Harris-Foulkes estimate   =    -447.58915083 Ry
     estimated scf accuracy    <          2.8E-10 Ry

     iteration #  4     ecut=    75.00 Ry     beta= 0.70
     Davidson diagonalization with overlap
     ethr =  5.39E-13,  avg # of iterations =  1.0

     total cpu time spent up to now is     7148.6 secs

     total energy              =    -447.58915083 Ry
     Harris-Foulkes estimate   =    -447.58915083 Ry
     estimated scf accuracy    <          1.2E-10 Ry

     iteration #  5     ecut=    75.00 Ry     beta= 0.70
     Davidson diagonalization with overlap
     ethr =  2.37E-13,  avg # of iterations =  2.0

     total cpu time spent up to now is     7222.1 secs

     End of self-consistent calculation

     Number of k-points >= 100: set verbosity='high' to print the bands.

     highest occupied level (ev):     8.9483

!    total energy              =    -447.58915083 Ry
     Harris-Foulkes estimate   =    -447.58915083 Ry
     estimated scf accuracy    <          5.5E-13 Ry

     The total energy is the sum of the following terms:

     one-electron contribution =    -125.11344384 Ry
     hartree contribution      =     101.35623467 Ry
     xc contribution           =    -122.08462864 Ry
     ewald contribution        =    -301.74731302 Ry

     convergence has been achieved in   5 iterations

     Forces acting on atoms (cartesian axes, Ry/au):

     atom    1 type  1   force =    -0.00000524   -0.00000524    0.00000000
     atom    2 type  1   force =     0.00000246    0.00000246    0.00000000
     atom    3 type  2   force =     0.00000488   -0.00000546    0.00000000
     atom    4 type  2   force =    -0.00000546    0.00000488    0.00000000
     atom    5 type  2   force =     0.00000689    0.00000689    0.00000000
     atom    6 type  2   force =    -0.00000353   -0.00000353    0.00000000

     Total force =     0.000017     Total SCF correction =     0.000005
     SCF correction compared to forces is large: reduce conv_thr to get better values


     Computing stress (Cartesian axis) and pressure

          total   stress  (Ry/bohr**3)                   (kbar)     P=    0.01
   0.00000011  -0.00000000   0.00000000          0.02     -0.00      0.00
  -0.00000000   0.00000011   0.00000000         -0.00      0.02      0.00
   0.00000000   0.00000000  -0.00000008          0.00      0.00     -0.01


     number of scf cycles    =  11
     number of bfgs steps    =  10

     enthalpy old            =    -447.5891508246 Ry
     enthalpy new            =    -447.5891508261 Ry

     CASE: enthalpy_new < enthalpy_old

     Message from routine bfgs:
     history already reset at previous step: stopping
     small trust_radius: resetting bfgs history

     new trust radius        =       0.0000126629 bohr
     new conv_thr            =            1.6E-13 Ry

     new unit-cell volume =    510.70201 a.u.^3 (    75.67823 Ang^3 )
     density =      6.61370 g/cm^3

CELL_PARAMETERS (alat=  9.11000000)
   1.001643712   0.000000000   0.000000000
   0.000000000   1.001643712   0.000000000
   0.000000000   0.000000000   0.673264779

ATOMIC_POSITIONS (crystal)
Sn      -0.000330024  -0.000330024   0.000000000
Sn       0.499669399   0.499669399   0.500000000
O        0.806312731   0.193013794   0.500000000
O        0.193013794   0.806312731   0.500000000
O        0.306316523   0.306316523   0.000000000
O        0.693017576   0.693017576   0.000000000



     Writing output data file SnO2.save
     NEW-OLD atomic charge density approx. for the potential

     Check: negative/imaginary core charge=   -0.000002    0.000000
     extrapolated charge   52.00018, renormalised to   52.00000

     total cpu time spent up to now is     7249.8 secs

     Self-consistent Calculation

     iteration #  1     ecut=    75.00 Ry     beta= 0.70
     Davidson diagonalization with overlap
     ethr =  1.00E-06,  avg # of iterations =  1.0

     Threshold (ethr) on eigenvalues was too large:
     Diagonalizing with lowered threshold

     Davidson diagonalization with overlap
     ethr =  3.03E-12,  avg # of iterations =  3.2

     total cpu time spent up to now is     7389.1 secs

     total energy              =    -447.58915083 Ry
     Harris-Foulkes estimate   =    -447.58874871 Ry
     estimated scf accuracy    <          1.0E-09 Ry

     iteration #  2     ecut=    75.00 Ry     beta= 0.70
     Davidson diagonalization with overlap
     ethr =  1.96E-12,  avg # of iterations =  4.0

     total cpu time spent up to now is     7478.2 secs

     total energy              =    -447.58915083 Ry
     Harris-Foulkes estimate   =    -447.58915083 Ry
     estimated scf accuracy    <          2.8E-09 Ry

     iteration #  3     ecut=    75.00 Ry     beta= 0.70
     Davidson diagonalization with overlap
     ethr =  1.96E-12,  avg # of iterations =  2.0

     total cpu time spent up to now is     7546.2 secs

     total energy              =    -447.58915083 Ry
     Harris-Foulkes estimate   =    -447.58915083 Ry
     estimated scf accuracy    <          3.7E-10 Ry

     iteration #  4     ecut=    75.00 Ry     beta= 0.70
     Davidson diagonalization with overlap
     ethr =  7.05E-13,  avg # of iterations =  1.0

     total cpu time spent up to now is     7598.7 secs

     total energy              =    -447.58915083 Ry
     Harris-Foulkes estimate   =    -447.58915083 Ry
     estimated scf accuracy    <          1.9E-10 Ry

     iteration #  5     ecut=    75.00 Ry     beta= 0.70
     Davidson diagonalization with overlap
     ethr =  3.63E-13,  avg # of iterations =  2.0

     total cpu time spent up to now is     7669.8 secs

     total energy              =    -447.58915083 Ry
     Harris-Foulkes estimate   =    -447.58915083 Ry
     estimated scf accuracy    <          8.1E-13 Ry

     iteration #  6     ecut=    75.00 Ry     beta= 0.70
     Davidson diagonalization with overlap
     ethr =  1.00E-13,  avg # of iterations =  1.0

     total cpu time spent up to now is     7723.5 secs

     total energy              =    -447.58915083 Ry
     Harris-Foulkes estimate   =    -447.58915083 Ry
     estimated scf accuracy    <          2.5E-13 Ry

     iteration #  7     ecut=    75.00 Ry     beta= 0.70
     Davidson diagonalization with overlap
     ethr =  1.00E-13,  avg # of iterations =  1.0

     total cpu time spent up to now is     7776.0 secs

     End of self-consistent calculation

     Number of k-points >= 100: set verbosity='high' to print the bands.

     highest occupied level (ev):     8.9482

!    total energy              =    -447.58915083 Ry
     Harris-Foulkes estimate   =    -447.58915083 Ry
     estimated scf accuracy    <          2.1E-14 Ry

     The total energy is the sum of the following terms:

     one-electron contribution =    -125.11438955 Ry
     hartree contribution      =     101.35659969 Ry
     xc contribution           =    -122.08461904 Ry
     ewald contribution        =    -301.74674194 Ry

     convergence has been achieved in   7 iterations

     Forces acting on atoms (cartesian axes, Ry/au):

     atom    1 type  1   force =    -0.00000280   -0.00000280    0.00000000
     atom    2 type  1   force =     0.00000136    0.00000136    0.00000000
     atom    3 type  2   force =     0.00000286   -0.00000341    0.00000000
     atom    4 type  2   force =    -0.00000341    0.00000286    0.00000000
     atom    5 type  2   force =     0.00000412    0.00000412    0.00000000
     atom    6 type  2   force =    -0.00000214   -0.00000214    0.00000000

     Total force =     0.000010     Total SCF correction =     0.000000


     Computing stress (Cartesian axis) and pressure

          total   stress  (Ry/bohr**3)                   (kbar)     P=    0.00
   0.00000007   0.00000000   0.00000000          0.01      0.00      0.00
   0.00000000   0.00000007   0.00000000          0.00      0.01      0.00
   0.00000000   0.00000000  -0.00000007          0.00      0.00     -0.01


     bfgs converged in  12 scf cycles and  11 bfgs steps
     (criteria: energy <  1.0E-10 Ry, force <  1.0E-09Ry/Bohr, cell <  5.0E-01kbar)

     End of BFGS Geometry Optimization

     Final enthalpy =    -447.5891508267 Ry
Begin final coordinates
     new unit-cell volume =    510.70201 a.u.^3 (    75.67823 Ang^3 )
     density =      6.61370 g/cm^3

CELL_PARAMETERS (alat=  9.11000000)
   1.001643712   0.000000000   0.000000000
   0.000000000   1.001643712   0.000000000
   0.000000000   0.000000000   0.673264779

ATOMIC_POSITIONS (crystal)
Sn      -0.000330024  -0.000330024   0.000000000
Sn       0.499669399   0.499669399   0.500000000
O        0.806312731   0.193013794   0.500000000
O        0.193013794   0.806312731   0.500000000
O        0.306316523   0.306316523   0.000000000
O        0.693017576   0.693017576   0.000000000
End final coordinates



     A final scf calculation at the relaxed structure.
     The G-vectors are recalculated for the final unit cell
     Results may differ from those at the preceding step.
 
     Parallelization info
     --------------------
     sticks:   dense  smooth     PW     G-vecs:    dense   smooth      PW
     Min         996     996    296                22404    22404    3561
     Max         997     997    297                22405    22405    3562
     Sum        1993    1993    593                44809    44809    7123
 


     bravais-lattice index     =            6
     lattice parameter (alat)  =       9.1100  a.u.
     unit-cell volume          =     510.7020 (a.u.)^3
     number of atoms/cell      =            6
     number of atomic types    =            2
     number of electrons       =        52.00
     number of Kohn-Sham states=           26
     kinetic-energy cutoff     =      75.0000  Ry
     charge density cutoff     =     300.0000  Ry
     convergence threshold     =      1.6E-13
     mixing beta               =       0.7000
     number of iterations used =            8  plain     mixing
     Exchange-correlation      = PBE ( 1  4  3  4 0 0)

     celldm(1)=   9.110000  celldm(2)=   0.000000  celldm(3)=   0.670000
     celldm(4)=   0.000000  celldm(5)=   0.000000  celldm(6)=   0.000000

     crystal axes: (cart. coord. in units of alat)
               a(1) = (   1.001644   0.000000   0.000000 )  
               a(2) = (   0.000000   1.001644   0.000000 )  
               a(3) = (   0.000000   0.000000   0.673265 )  

     reciprocal axes: (cart. coord. in units 2 pi/alat)
               b(1) = (  0.998359  0.000000  0.000000 )  
               b(2) = (  0.000000  0.998359  0.000000 )  
               b(3) = (  0.000000  0.000000  1.485300 )  


     PseudoPot. # 1 for Sn read from file:
     ../../Pseudo_potentials/Sn_PBE.upf
     MD5 check sum: 78e6386ae56e929f0568ae8bf606a80c
     Pseudo is Norm-conserving + core correction, Zval = 14.0
     Generated using ONCVPSP code by D. R. Hamann
     Using radial grid of 1628 points,  6 beta functions with: 
                l(1) =   0
                l(2) =   0
                l(3) =   1
                l(4) =   1
                l(5) =   2
                l(6) =   2

     PseudoPot. # 2 for O  read from file:
     ../../Pseudo_potentials/O_PBE.upf
     MD5 check sum: 3e3f909f7470e8921608ab6b1f57bbae
     Pseudo is Norm-conserving + core correction, Zval =  6.0
     Generated using ONCVPSP code by D. R. Hamann
     Using radial grid of  936 points,  5 beta functions with: 
                l(1) =   0
                l(2) =   0
                l(3) =   1
                l(4) =   1
                l(5) =   2

     atomic species   valence    mass     pseudopotential
        Sn            14.00   118.71000     Sn( 1.00)
        O              6.00    15.99900     O ( 1.00)

      4 Sym. Ops. (no inversion) found



   Cartesian axes

     site n.     atom                  positions (alat units)
         1           Sn  tau(   1) = (  -0.0003306  -0.0003306   0.0000000  )
         2           Sn  tau(   2) = (   0.5004907   0.5004907   0.3366324  )
         3           O   tau(   3) = (   0.8076381   0.1933311   0.3366324  )
         4           O   tau(   4) = (   0.1933311   0.8076381   0.3366324  )
         5           O   tau(   5) = (   0.3068200   0.3068200   0.0000000  )
         6           O   tau(   6) = (   0.6941567   0.6941567   0.0000000  )

     number of k points=   301

     Number of k-points >= 100: set verbosity='high' to print them.

     Dense  grid:    44809 G-vectors     FFT dimensions: (  54,  54,  36)

     Estimated max dynamical RAM per process >     370.78 MB

     Estimated total dynamical RAM >     741.55 MB

     Check: negative/imaginary core charge=   -0.000002    0.000000

     Initial potential from superposition of free atoms

     starting charge   51.99690, renormalised to   52.00000
     Starting wfc are   34 randomized atomic wfcs

     Writing output data file SnO2.save

     total cpu time spent up to now is     7824.4 secs

     Self-consistent Calculation

     iteration #  1     ecut=    75.00 Ry     beta= 0.70
     Davidson diagonalization with overlap
     ethr =  1.00E-06,  avg # of iterations =  5.6

     total cpu time spent up to now is     7950.2 secs

     total energy              =    -446.90592235 Ry
     Harris-Foulkes estimate   =    -448.04430591 Ry
     estimated scf accuracy    <       1.54803314 Ry

     iteration #  2     ecut=    75.00 Ry     beta= 0.70
     Davidson diagonalization with overlap
     ethr =  2.98E-03,  avg # of iterations =  3.1

     total cpu time spent up to now is     8021.5 secs

     total energy              =    -447.27660976 Ry
     Harris-Foulkes estimate   =    -448.03237527 Ry
     estimated scf accuracy    <       1.54842704 Ry

     iteration #  3     ecut=    75.00 Ry     beta= 0.70
     Davidson diagonalization with overlap
     ethr =  2.98E-03,  avg # of iterations =  3.0

     total cpu time spent up to now is     8090.6 secs

     total energy              =    -447.58597332 Ry
     Harris-Foulkes estimate   =    -447.58692650 Ry
     estimated scf accuracy    <       0.00627649 Ry

     iteration #  4     ecut=    75.00 Ry     beta= 0.70
     Davidson diagonalization with overlap
     ethr =  1.21E-05,  avg # of iterations =  2.9

     total cpu time spent up to now is     8167.4 secs

     total energy              =    -447.58919993 Ry
     Harris-Foulkes estimate   =    -447.58939144 Ry
     estimated scf accuracy    <       0.00041164 Ry

     iteration #  5     ecut=    75.00 Ry     beta= 0.70
     Davidson diagonalization with overlap
     ethr =  7.92E-07,  avg # of iterations =  3.0

     total cpu time spent up to now is     8230.7 secs

     total energy              =    -447.58922945 Ry
     Harris-Foulkes estimate   =    -447.58924109 Ry
     estimated scf accuracy    <       0.00003407 Ry

     iteration #  6     ecut=    75.00 Ry     beta= 0.70
     Davidson diagonalization with overlap
     ethr =  6.55E-08,  avg # of iterations =  2.7

     total cpu time spent up to now is     8305.1 secs

     total energy              =    -447.58923720 Ry
     Harris-Foulkes estimate   =    -447.58923727 Ry
     estimated scf accuracy    <       0.00000158 Ry

     iteration #  7     ecut=    75.00 Ry     beta= 0.70
     Davidson diagonalization with overlap
     ethr =  3.04E-09,  avg # of iterations =  2.2

     total cpu time spent up to now is     8369.7 secs

     total energy              =    -447.58923741 Ry
     Harris-Foulkes estimate   =    -447.58923742 Ry
     estimated scf accuracy    <       0.00000005 Ry

     iteration #  8     ecut=    75.00 Ry     beta= 0.70
     Davidson diagonalization with overlap
     ethr =  8.74E-11,  avg # of iterations =  3.6

     total cpu time spent up to now is     8446.0 secs

     total energy              =    -447.58923743 Ry
     Harris-Foulkes estimate   =    -447.58923743 Ry
     estimated scf accuracy    <          4.3E-09 Ry

     iteration #  9     ecut=    75.00 Ry     beta= 0.70
     Davidson diagonalization with overlap
     ethr =  8.28E-12,  avg # of iterations =  3.0

     total cpu time spent up to now is     8514.8 secs

     total energy              =    -447.58929061 Ry
     Harris-Foulkes estimate   =    -447.58929062 Ry
     estimated scf accuracy    <       0.00000010 Ry

     iteration # 10     ecut=    75.00 Ry     beta= 0.70
     Davidson diagonalization with overlap
     ethr =  8.28E-12,  avg # of iterations =  1.0

     total cpu time spent up to now is     8567.9 secs

     total energy              =    -447.58929058 Ry
     Harris-Foulkes estimate   =    -447.58929061 Ry
     estimated scf accuracy    <       0.00000009 Ry

     iteration # 11     ecut=    75.00 Ry     beta= 0.70
     Davidson diagonalization with overlap
     ethr =  8.28E-12,  avg # of iterations =  4.0

     total cpu time spent up to now is     8656.4 secs

     total energy              =    -447.58929058 Ry
     Harris-Foulkes estimate   =    -447.58929059 Ry
     estimated scf accuracy    <          6.7E-09 Ry

     iteration # 12     ecut=    75.00 Ry     beta= 0.70
     Davidson diagonalization with overlap
     ethr =  8.28E-12,  avg # of iterations =  2.6

     total cpu time spent up to now is     8721.7 secs

     total energy              =    -447.58929058 Ry
     Harris-Foulkes estimate   =    -447.58929058 Ry
     estimated scf accuracy    <          8.0E-10 Ry

     iteration # 13     ecut=    75.00 Ry     beta= 0.70
     Davidson diagonalization with overlap
     ethr =  1.54E-12,  avg # of iterations =  1.8

     total cpu time spent up to now is     8775.8 secs

     total energy              =    -447.58929058 Ry
     Harris-Foulkes estimate   =    -447.58929058 Ry
     estimated scf accuracy    <          6.3E-10 Ry

     iteration # 14     ecut=    75.00 Ry     beta= 0.70
     Davidson diagonalization with overlap
     ethr =  1.21E-12,  avg # of iterations =  1.0

     total cpu time spent up to now is     8827.4 secs

     total energy              =    -447.58929058 Ry
     Harris-Foulkes estimate   =    -447.58929058 Ry
     estimated scf accuracy    <          2.8E-10 Ry

     iteration # 15     ecut=    75.00 Ry     beta= 0.70
     Davidson diagonalization with overlap
     ethr =  5.39E-13,  avg # of iterations =  2.2

     total cpu time spent up to now is     8885.6 secs

     total energy              =    -447.58929058 Ry
     Harris-Foulkes estimate   =    -447.58929058 Ry
     estimated scf accuracy    <          4.5E-11 Ry

     iteration # 16     ecut=    75.00 Ry     beta= 0.70
     Davidson diagonalization with overlap
     ethr =  1.00E-13,  avg # of iterations =  1.2

     total cpu time spent up to now is     8938.6 secs

     total energy              =    -447.58929058 Ry
     Harris-Foulkes estimate   =    -447.58929058 Ry
     estimated scf accuracy    <          3.6E-11 Ry

     iteration # 17     ecut=    75.00 Ry     beta= 0.70
     Davidson diagonalization with overlap
     ethr =  1.00E-13,  avg # of iterations =  2.0

     total cpu time spent up to now is     8992.6 secs

     total energy              =    -447.58929058 Ry
     Harris-Foulkes estimate   =    -447.58929058 Ry
     estimated scf accuracy    <          5.4E-12 Ry

     iteration # 18     ecut=    75.00 Ry     beta= 0.70
     Davidson diagonalization with overlap
     ethr =  1.00E-13,  avg # of iterations =  1.4

     total cpu time spent up to now is     9047.4 secs

     End of self-consistent calculation

     Number of k-points >= 100: set verbosity='high' to print the bands.

     highest occupied level (ev):     8.9483

!    total energy              =    -447.58929058 Ry
     Harris-Foulkes estimate   =    -447.58929058 Ry
     estimated scf accuracy    <          3.0E-14 Ry

     The total energy is the sum of the following terms:

     one-electron contribution =    -125.11460577 Ry
     hartree contribution      =     101.35677383 Ry
     xc contribution           =    -122.08471670 Ry
     ewald contribution        =    -301.74674194 Ry

     convergence has been achieved in  18 iterations

     Forces acting on atoms (cartesian axes, Ry/au):

     atom    1 type  1   force =    -0.00000291   -0.00000291    0.00000000
     atom    2 type  1   force =     0.00000135    0.00000135    0.00000000
     atom    3 type  2   force =     0.00000225   -0.00000277   -0.00000000
     atom    4 type  2   force =    -0.00000277    0.00000225    0.00000000
     atom    5 type  2   force =     0.00000357    0.00000357    0.00000000
     atom    6 type  2   force =    -0.00000150   -0.00000150    0.00000000

     Total force =     0.000009     Total SCF correction =     0.000000


     Computing stress (Cartesian axis) and pressure

          total   stress  (Ry/bohr**3)                   (kbar)     P=    0.47
   0.00000269  -0.00000000   0.00000000          0.40     -0.00      0.00
  -0.00000000   0.00000269   0.00000000         -0.00      0.40      0.00
   0.00000000   0.00000000   0.00000420          0.00      0.00      0.62


     Writing output data file SnO2.save
 
     init_run     :     51.59s CPU     52.12s WALL (       2 calls)
     electrons    :   8548.68s CPU   8691.27s WALL (      13 calls)
     update_pot   :     18.09s CPU     18.29s WALL (      11 calls)
     forces       :     76.38s CPU     76.71s WALL (      13 calls)
     stress       :    228.98s CPU    229.37s WALL (      13 calls)

     Called by init_run:
     wfcinit      :     49.92s CPU     50.43s WALL (       2 calls)
     potinit      :      0.60s CPU      0.60s WALL (       2 calls)
     hinit0       :      1.03s CPU      1.05s WALL (       2 calls)

     Called by electrons:
     c_bands      :   7492.02s CPU   7622.85s WALL (     127 calls)
     sum_band     :   1052.38s CPU   1063.38s WALL (     127 calls)
     v_of_rho     :      3.91s CPU      3.96s WALL (     130 calls)
     mix_rho      :      0.57s CPU      0.62s WALL (     127 calls)

     Called by c_bands:
     init_us_2    :    151.12s CPU    154.25s WALL (   84882 calls)
     cegterg      :   6769.79s CPU   6897.79s WALL (   38227 calls)

     Called by sum_band:

     Called by *egterg:
     h_psi        :   5806.29s CPU   5873.57s WALL (  131961 calls)
     g_psi        :     56.86s CPU     57.08s WALL (   93132 calls)
     cdiaghg      :    185.86s CPU    178.71s WALL (  125038 calls)

     Called by h_psi:
     h_psi:pot    :   5775.03s CPU   5839.12s WALL (  131961 calls)
     h_psi:calbec :    354.98s CPU    340.17s WALL (  131961 calls)
     vloc_psi     :   5128.09s CPU   5150.88s WALL (  131961 calls)
     add_vuspsi   :    291.75s CPU    347.58s WALL (  131961 calls)

     General routines
     calbec       :    420.98s CPU    397.57s WALL (  151526 calls)
     fft          :      2.36s CPU      2.63s WALL (    1646 calls)
     ffts         :      0.18s CPU      0.18s WALL (     127 calls)
     fftw         :   5813.87s CPU   5647.20s WALL ( 6397802 calls)
 
     Parallel routines
     fft_scatt_xy :    265.31s CPU    561.22s WALL ( 6399575 calls)
     fft_scatt_yz :   2882.14s CPU    627.46s WALL ( 6399575 calls)
 
     PWSCF        :     2h28m CPU        2h31m WALL

 
   This run was terminated on:   2:27:50  11Apr2018            

=------------------------------------------------------------------------------=
   JOB DONE.
=------------------------------------------------------------------------------=
