
     Program PWSCF v.6.2.2 starts on 10Apr2018 at 13:16:38 

     This program is part of the open-source Quantum ESPRESSO suite
     for quantum simulation of materials; please cite
         "P. Giannozzi et al., J. Phys.:Condens. Matter 21 395502 (2009);
         "P. Giannozzi et al., J. Phys.:Condens. Matter 29 465901 (2017);
          URL http://www.quantum-espresso.org", 
     in publications or presentations arising from this work. More details at
     http://www.quantum-espresso.org/quote

     Parallel version (MPI), running on     2 processors

     MPI processes distributed on     1 nodes
     R & G space division:  proc/nbgrp/npool/nimage =       2
     Waiting for input...
     Reading input from standard input
Warning: card  &IONS ignored
Warning: card  / ignored
Warning: card  &CELL ignored
Warning: card  / ignored

     Current dimensions of program PWSCF are:
     Max number of different atomic species (ntypx) = 10
     Max number of k-points (npk) =  40000
     Max angular momentum in pseudopotentials (lmaxx) =  3

     Subspace diagonalization in iterative solution of the eigenvalue problem:
     a serial algorithm will be used

 
     Parallelization info
     --------------------
     sticks:   dense  smooth     PW     G-vecs:    dense   smooth      PW
     Min         150     150     54                 1691     1691     362
     Max         151     151     55                 1692     1692     363
     Sum         301     301    109                 3383     3383     725
 


     bravais-lattice index     =            2
     lattice parameter (alat)  =      10.3463  a.u.
     unit-cell volume          =     276.8823 (a.u.)^3
     number of atoms/cell      =            2
     number of atomic types    =            1
     number of electrons       =         8.00
     number of Kohn-Sham states=            8
     kinetic-energy cutoff     =      20.0000  Ry
     charge density cutoff     =      80.0000  Ry
     convergence threshold     =      1.0E-10
     mixing beta               =       0.5000
     number of iterations used =            8  plain     mixing
     Exchange-correlation      = PBE ( 1  4  3  4 0 0)

     celldm(1)=  10.346300  celldm(2)=   0.000000  celldm(3)=   0.000000
     celldm(4)=   0.000000  celldm(5)=   0.000000  celldm(6)=   0.000000

     crystal axes: (cart. coord. in units of alat)
               a(1) = (  -0.500000   0.000000   0.500000 )  
               a(2) = (   0.000000   0.500000   0.500000 )  
               a(3) = (  -0.500000   0.500000   0.000000 )  

     reciprocal axes: (cart. coord. in units 2 pi/alat)
               b(1) = ( -1.000000 -1.000000  1.000000 )  
               b(2) = (  1.000000  1.000000  1.000000 )  
               b(3) = ( -1.000000  1.000000 -1.000000 )  


     PseudoPot. # 1 for Si read from file:
     ../../../Pseudo_potentials/Si_PBE.upf
     MD5 check sum: 8bd403cc8851335ce2e07d79feea9aec
     Pseudo is Norm-conserving + core correction, Zval =  4.0
     Generated using ONCVPSP code by D. R. Hamann
     Using radial grid of 1510 points,  6 beta functions with: 
                l(1) =   0
                l(2) =   0
                l(3) =   1
                l(4) =   1
                l(5) =   2
                l(6) =   2

     atomic species   valence    mass     pseudopotential
        Si             4.00    28.08600     Si( 1.00)

     48 Sym. Ops., with inversion, found (24 have fractional translation)



   Cartesian axes

     site n.     atom                  positions (alat units)
         1           Si  tau(   1) = (   0.0000000   0.0000000   0.0000000  )
         2           Si  tau(   2) = (  -0.2500000   0.2500000   0.2500000  )

     number of k points=    28
                       cart. coord. in units 2pi/alat
        k(    1) = (  -0.0833333   0.0833333   0.0833333), wk =   0.0185185
        k(    2) = (  -0.2500000   0.2500000  -0.0833333), wk =   0.0555556
        k(    3) = (  -0.4166667   0.4166667  -0.2500000), wk =   0.0555556
        k(    4) = (   0.4166667  -0.4166667   0.5833333), wk =   0.0555556
        k(    5) = (   0.2500000  -0.2500000   0.4166667), wk =   0.0555556
        k(    6) = (   0.0833333  -0.0833333   0.2500000), wk =   0.0555556
        k(    7) = (  -0.0833333   0.4166667   0.0833333), wk =   0.0555556
        k(    8) = (  -0.2500000   0.5833333  -0.0833333), wk =   0.1111111
        k(    9) = (   0.5833333  -0.2500000   0.7500000), wk =   0.1111111
        k(   10) = (   0.4166667  -0.0833333   0.5833333), wk =   0.1111111
        k(   11) = (   0.2500000   0.0833333   0.4166667), wk =   0.1111111
        k(   12) = (  -0.0833333   0.7500000   0.0833333), wk =   0.0555556
        k(   13) = (   0.7500000  -0.0833333   0.9166667), wk =   0.1111111
        k(   14) = (   0.5833333   0.0833333   0.7500000), wk =   0.1111111
        k(   15) = (   0.4166667   0.2500000   0.5833333), wk =   0.1111111
        k(   16) = (  -0.0833333  -0.9166667   0.0833333), wk =   0.0555556
        k(   17) = (  -0.2500000  -0.7500000  -0.0833333), wk =   0.1111111
        k(   18) = (  -0.0833333  -0.5833333   0.0833333), wk =   0.0555556
        k(   19) = (  -0.2500000   0.2500000   0.2500000), wk =   0.0185185
        k(   20) = (  -0.4166667   0.4166667   0.0833333), wk =   0.0555556
        k(   21) = (   0.4166667  -0.4166667   0.9166667), wk =   0.0555556
        k(   22) = (   0.2500000  -0.2500000   0.7500000), wk =   0.0555556
        k(   23) = (  -0.2500000   0.5833333   0.2500000), wk =   0.0555556
        k(   24) = (   0.5833333  -0.2500000   1.0833333), wk =   0.1111111
        k(   25) = (   0.4166667  -0.0833333   0.9166667), wk =   0.1111111
        k(   26) = (  -0.2500000  -1.0833333   0.2500000), wk =   0.0555556
        k(   27) = (  -0.4166667   0.4166667   0.4166667), wk =   0.0185185
        k(   28) = (   0.4166667  -0.4166667   1.2500000), wk =   0.0555556

     Dense  grid:     3383 G-vectors     FFT dimensions: (  24,  24,  24)

     Estimated max dynamical RAM per process >       3.47 MB

     Estimated total dynamical RAM >       6.94 MB

     Initial potential from superposition of free atoms

     starting charge    7.99877, renormalised to    8.00000
     Starting wfc are    8 randomized atomic wfcs

     total cpu time spent up to now is        0.5 secs

     Self-consistent Calculation

     iteration #  1     ecut=    20.00 Ry     beta= 0.50
     Davidson diagonalization with overlap
     ethr =  1.00E-02,  avg # of iterations =  3.8

     Threshold (ethr) on eigenvalues was too large:
     Diagonalizing with lowered threshold

     Davidson diagonalization with overlap
     ethr =  6.87E-04,  avg # of iterations =  1.0

     total cpu time spent up to now is        1.2 secs

     total energy              =     -16.92358856 Ry
     Harris-Foulkes estimate   =     -16.93476835 Ry
     estimated scf accuracy    <       0.05439223 Ry

     iteration #  2     ecut=    20.00 Ry     beta= 0.50
     Davidson diagonalization with overlap
     ethr =  6.80E-04,  avg # of iterations =  1.0

     total cpu time spent up to now is        1.5 secs

     total energy              =     -16.92289566 Ry
     Harris-Foulkes estimate   =     -16.92473206 Ry
     estimated scf accuracy    <       0.00939264 Ry

     iteration #  3     ecut=    20.00 Ry     beta= 0.50
     Davidson diagonalization with overlap
     ethr =  1.17E-04,  avg # of iterations =  1.8

     total cpu time spent up to now is        1.8 secs

     total energy              =     -16.92329767 Ry
     Harris-Foulkes estimate   =     -16.92330177 Ry
     estimated scf accuracy    <       0.00011981 Ry

     iteration #  4     ecut=    20.00 Ry     beta= 0.50
     Davidson diagonalization with overlap
     ethr =  1.50E-06,  avg # of iterations =  3.6

     total cpu time spent up to now is        2.1 secs

     total energy              =     -16.92331495 Ry
     Harris-Foulkes estimate   =     -16.92331503 Ry
     estimated scf accuracy    <       0.00000162 Ry

     iteration #  5     ecut=    20.00 Ry     beta= 0.50
     Davidson diagonalization with overlap
     ethr =  2.02E-08,  avg # of iterations =  2.2

     total cpu time spent up to now is        2.5 secs

     total energy              =     -16.92331551 Ry
     Harris-Foulkes estimate   =     -16.92331546 Ry
     estimated scf accuracy    <       0.00000011 Ry

     iteration #  6     ecut=    20.00 Ry     beta= 0.50
     Davidson diagonalization with overlap
     ethr =  1.44E-09,  avg # of iterations =  1.9

     total cpu time spent up to now is        2.8 secs

     total energy              =     -16.92331552 Ry
     Harris-Foulkes estimate   =     -16.92331552 Ry
     estimated scf accuracy    <          2.4E-09 Ry

     iteration #  7     ecut=    20.00 Ry     beta= 0.50
     Davidson diagonalization with overlap
     ethr =  2.94E-11,  avg # of iterations =  2.3

     total cpu time spent up to now is        3.1 secs

     End of self-consistent calculation

          k =-0.0833 0.0833 0.0833 (   417 PWs)   bands (ev):

    -5.7312   5.1210   5.8448   5.8448   8.5289   8.7387   8.7387   9.7635

          k =-0.2500 0.2500-0.0833 (   412 PWs)   bands (ev):

    -5.2636   3.0529   4.6252   5.6328   8.6148   9.1325   9.4819  11.5704

          k =-0.4167 0.4167-0.2500 (   415 PWs)   bands (ev):

    -4.1934   0.3340   4.1605   5.0025   8.1056   9.5387   9.5800  13.3778

          k = 0.4167-0.4167 0.5833 (   415 PWs)   bands (ev):

    -3.5134  -0.7857   4.2227   4.6279   7.9551   9.2641   9.6881  13.8457

          k = 0.2500-0.2500 0.4167 (   417 PWs)   bands (ev):

    -4.5964   1.1659   4.6898   4.7152   8.2104   9.2595  10.0569  11.9340

          k = 0.0833-0.0833 0.2500 (   411 PWs)   bands (ev):

    -5.4951   4.0524   5.2074   5.3847   8.2847   9.1257   9.6299  10.7142

          k =-0.0833 0.4167 0.0833 (   421 PWs)   bands (ev):

    -5.0272   2.8532   4.4675   4.4872   7.7152   9.8182  10.6397  10.8415

          k =-0.2500 0.5833-0.0833 (   415 PWs)   bands (ev):

    -4.1339   1.0367   3.1746   4.1051   8.1133   9.7260  10.4907  11.9433

          k = 0.5833-0.2500 0.7500 (   419 PWs)   bands (ev):

    -3.0446  -0.6745   2.5769   3.8831   8.3588   9.8947  11.8222  12.2096

          k = 0.4167-0.0833 0.5833 (   417 PWs)   bands (ev):

    -3.7483   0.3580   2.5429   4.3597   8.9355   9.5761  11.2233  11.7157

          k = 0.2500 0.0833 0.4167 (   416 PWs)   bands (ev):

    -4.8059   2.0350   3.8595   5.0147   8.5836   9.4145  10.5063  10.8831

          k =-0.0833 0.7500 0.0833 (   426 PWs)   bands (ev):

    -3.4353   0.2112   3.1415   3.4723   6.9096   7.8848  13.4578  13.5331

          k = 0.7500-0.0833 0.9167 (   422 PWs)   bands (ev):

    -2.2634  -1.1077   2.3196   3.0763   7.5295   8.6377  13.0187  14.4507

          k = 0.5833 0.0833 0.7500 (   415 PWs)   bands (ev):

    -2.6320  -0.7682   1.8440   3.6120   8.1360  11.0186  11.9877  12.6285

          k = 0.4167 0.2500 0.5833 (   419 PWs)   bands (ev):

    -3.6405  -0.3005   3.4583   4.4546   8.5297   9.1979  10.4958  12.6994

          k =-0.0833-0.9167 0.0833 (   423 PWs)   bands (ev):

    -2.3513  -1.1146   2.8767   3.2598   6.8047   7.3660  14.9348  15.0065

          k =-0.2500-0.7500-0.0833 (   420 PWs)   bands (ev):

    -3.2710  -0.0065   2.6318   3.4112   7.7331   9.0059  11.6748  13.4719

          k =-0.0833-0.5833 0.0833 (   425 PWs)   bands (ev):

    -4.3354   1.5595   3.6755   3.8887   7.2201   8.7856  11.9407  12.1544

          k =-0.2500 0.2500 0.2500 (   417 PWs)   bands (ev):

    -5.0386   2.0914   5.2353   5.2353   7.9222   9.4715   9.4715  12.6904

          k =-0.4167 0.4167 0.0833 (   417 PWs)   bands (ev):

    -4.3727   1.1588   3.1389   5.0664   8.7113   9.9576  10.1304  12.0131

          k = 0.4167-0.4167 0.9167 (   416 PWs)   bands (ev):

    -3.2191  -0.2666   2.0544   4.2931   8.0165  11.2657  11.3667  13.0526

          k = 0.2500-0.2500 0.7500 (   420 PWs)   bands (ev):

    -3.1668  -0.3453   2.5210   3.8196   7.5318  10.4280  11.6158  11.8693

          k =-0.2500 0.5833 0.2500 (   421 PWs)   bands (ev):

    -3.9575   0.3668   3.5864   4.1871   7.9976  10.1635  10.8585  11.0189

          k = 0.5833-0.2500 1.0833 (   415 PWs)   bands (ev):

    -2.9758  -0.3850   2.1537   3.4115   9.2116   9.7351  10.6963  13.3990

          k = 0.4167-0.0833 0.9167 (   418 PWs)   bands (ev):

    -2.1615  -1.1152   1.9979   2.7581   9.0128  10.2781  11.0225  12.4071

          k =-0.2500-1.0833 0.2500 (   422 PWs)   bands (ev):

    -2.3691  -1.0176   1.8738   3.6279   7.2617  10.1415  13.0150  13.1734

          k =-0.4167 0.4167 0.4167 (   422 PWs)   bands (ev):

    -3.8732  -0.3933   4.8490   4.8490   7.4877   9.3919   9.3919  13.7572

          k = 0.4167-0.4167 1.2500 (   414 PWs)   bands (ev):

    -3.2820  -0.6957   3.0412   4.4176   8.1583  10.0061  10.3739  13.8799

     highest occupied, lowest unoccupied level (ev):     5.8448    6.8047

!    total energy              =     -16.92331552 Ry
     Harris-Foulkes estimate   =     -16.92331552 Ry
     estimated scf accuracy    <          1.9E-11 Ry

     The total energy is the sum of the following terms:

     one-electron contribution =       4.77778801 Ry
     hartree contribution      =       1.11577895 Ry
     xc contribution           =      -6.15609190 Ry
     ewald contribution        =     -16.66079058 Ry

     convergence has been achieved in   7 iterations

     Forces acting on atoms (cartesian axes, Ry/au):

     atom    1 type  1   force =     0.00000000    0.00000000   -0.00000000
     atom    2 type  1   force =    -0.00000000   -0.00000000    0.00000000

     Total force =     0.000000     Total SCF correction =     0.000000


     Computing stress (Cartesian axis) and pressure

          total   stress  (Ry/bohr**3)                   (kbar)     P=   -6.29
  -0.00004273  -0.00000000   0.00000000         -6.29     -0.00      0.00
  -0.00000000  -0.00004273   0.00000000         -0.00     -6.29      0.00
   0.00000000   0.00000000  -0.00004273          0.00      0.00     -6.29


     Writing output data file si.save
 
     init_run     :      0.12s CPU      0.16s WALL (       1 calls)
     electrons    :      2.47s CPU      2.59s WALL (       1 calls)
     forces       :      0.02s CPU      0.03s WALL (       1 calls)
     stress       :      0.09s CPU      0.09s WALL (       1 calls)

     Called by init_run:
     wfcinit      :      0.09s CPU      0.13s WALL (       1 calls)
     potinit      :      0.01s CPU      0.01s WALL (       1 calls)
     hinit0       :      0.02s CPU      0.02s WALL (       1 calls)

     Called by electrons:
     c_bands      :      2.08s CPU      2.18s WALL (       8 calls)
     sum_band     :      0.34s CPU      0.36s WALL (       8 calls)
     v_of_rho     :      0.05s CPU      0.05s WALL (       8 calls)
     mix_rho      :      0.00s CPU      0.00s WALL (       8 calls)

     Called by c_bands:
     init_us_2    :      0.02s CPU      0.08s WALL (     532 calls)
     cegterg      :      1.90s CPU      1.89s WALL (     224 calls)

     Called by sum_band:

     Called by *egterg:
     h_psi        :      1.70s CPU      1.72s WALL (     745 calls)
     g_psi        :      0.00s CPU      0.02s WALL (     493 calls)
     cdiaghg      :      0.15s CPU      0.18s WALL (     689 calls)

     Called by h_psi:
     h_psi:pot    :      1.70s CPU      1.72s WALL (     745 calls)
     h_psi:calbec :      0.09s CPU      0.06s WALL (     745 calls)
     vloc_psi     :      1.61s CPU      1.61s WALL (     745 calls)
     add_vuspsi   :      0.00s CPU      0.04s WALL (     745 calls)

     General routines
     calbec       :      0.11s CPU      0.07s WALL (     885 calls)
     fft          :      0.03s CPU      0.03s WALL (     106 calls)
     ffts         :      0.00s CPU      0.00s WALL (       8 calls)
     fftw         :      1.91s CPU      1.79s WALL (   11050 calls)
 
     Parallel routines
     fft_scatt_xy :      0.03s CPU      0.14s WALL (   11164 calls)
     fft_scatt_yz :      1.67s CPU      0.26s WALL (   11164 calls)
 
     PWSCF        :     2.92s CPU         3.29s WALL

 
   This run was terminated on:  13:16:41  10Apr2018            

=------------------------------------------------------------------------------=
   JOB DONE.
=------------------------------------------------------------------------------=
