
     Program PWSCF v.6.2.2 starts on  3Apr2018 at 22:27:49 

     This program is part of the open-source Quantum ESPRESSO suite
     for quantum simulation of materials; please cite
         "P. Giannozzi et al., J. Phys.:Condens. Matter 21 395502 (2009);
         "P. Giannozzi et al., J. Phys.:Condens. Matter 29 465901 (2017);
          URL http://www.quantum-espresso.org", 
     in publications or presentations arising from this work. More details at
     http://www.quantum-espresso.org/quote

     Parallel version (MPI), running on     2 processors

     MPI processes distributed on     1 nodes
     R & G space division:  proc/nbgrp/npool/nimage =       2
     Reading input from SnO2.in

     Current dimensions of program PWSCF are:
     Max number of different atomic species (ntypx) = 10
     Max number of k-points (npk) =  40000
     Max angular momentum in pseudopotentials (lmaxx) =  3

     Subspace diagonalization in iterative solution of the eigenvalue problem:
     a serial algorithm will be used

 
     Parallelization info
     --------------------
     sticks:   dense  smooth     PW     G-vecs:    dense   smooth      PW
     Min         200     200     68                 2007     2007     408
     Max         201     201     69                 2008     2008     409
     Sum         401     401    137                 4015     4015     817
 


     bravais-lattice index     =            6
     lattice parameter (alat)  =       9.1100  a.u.
     unit-cell volume          =     506.5589 (a.u.)^3
     number of atoms/cell      =            6
     number of atomic types    =            2
     number of electrons       =        52.00
     number of Kohn-Sham states=           26
     kinetic-energy cutoff     =      15.0000  Ry
     charge density cutoff     =      60.0000  Ry
     convergence threshold     =      1.0E-06
     mixing beta               =       0.7000
     number of iterations used =            8  plain     mixing
     Exchange-correlation      = PBE ( 1  4  3  4 0 0)
     nstep                     =           50


     celldm(1)=   9.110000  celldm(2)=   0.000000  celldm(3)=   0.670000
     celldm(4)=   0.000000  celldm(5)=   0.000000  celldm(6)=   0.000000

     crystal axes: (cart. coord. in units of alat)
               a(1) = (   1.000000   0.000000   0.000000 )  
               a(2) = (   0.000000   1.000000   0.000000 )  
               a(3) = (   0.000000   0.000000   0.670000 )  

     reciprocal axes: (cart. coord. in units 2 pi/alat)
               b(1) = (  1.000000  0.000000  0.000000 )  
               b(2) = (  0.000000  1.000000  0.000000 )  
               b(3) = (  0.000000  0.000000  1.492537 )  


     PseudoPot. # 1 for Sn read from file:
     ../Pseudo_potentials/Sn_PBE.upf
     MD5 check sum: 78e6386ae56e929f0568ae8bf606a80c
     Pseudo is Norm-conserving + core correction, Zval = 14.0
     Generated using ONCVPSP code by D. R. Hamann
     Using radial grid of 1628 points,  6 beta functions with: 
                l(1) =   0
                l(2) =   0
                l(3) =   1
                l(4) =   1
                l(5) =   2
                l(6) =   2

     PseudoPot. # 2 for O  read from file:
     ../Pseudo_potentials/O_PBE.upf
     MD5 check sum: 3e3f909f7470e8921608ab6b1f57bbae
     Pseudo is Norm-conserving + core correction, Zval =  6.0
     Generated using ONCVPSP code by D. R. Hamann
     Using radial grid of  936 points,  5 beta functions with: 
                l(1) =   0
                l(2) =   0
                l(3) =   1
                l(4) =   1
                l(5) =   2

     atomic species   valence    mass     pseudopotential
        Sn            14.00   118.71000     Sn( 1.00)
        O              6.00    15.99900     O ( 1.00)

      4 Sym. Ops. (no inversion) found



   Cartesian axes

     site n.     atom                  positions (alat units)
         1           Sn  tau(   1) = (   0.0000000   0.0000000   0.0000000  )
         2           Sn  tau(   2) = (   0.5000000   0.5000000   0.3350000  )
         3           O   tau(   3) = (   0.8060000   0.1930000   0.3350000  )
         4           O   tau(   4) = (   0.1930000   0.8060000   0.3350000  )
         5           O   tau(   5) = (   0.3060000   0.3060000   0.0000000  )
         6           O   tau(   6) = (   0.6930000   0.6930000   0.0000000  )

     number of k points=   105

     Number of k-points >= 100: set verbosity='high' to print them.

     Dense  grid:     4015 G-vectors     FFT dimensions: (  24,  24,  15)

     Estimated max dynamical RAM per process >      16.90 MB

     Estimated total dynamical RAM >      33.81 MB

     Check: negative/imaginary core charge=   -0.005277    0.000000

     Initial potential from superposition of free atoms
     Check: negative starting charge=   -0.053732

     starting charge   51.99690, renormalised to   52.00000

     negative rho (up, down):  5.373E-02 0.000E+00
     Starting wfc are   34 randomized atomic wfcs

     total cpu time spent up to now is        1.1 secs

     Self-consistent Calculation

     iteration #  1     ecut=    15.00 Ry     beta= 0.70
     Davidson diagonalization with overlap
     ethr =  1.00E-02,  avg # of iterations =  3.0

     negative rho (up, down):  1.590E-02 0.000E+00

     total cpu time spent up to now is        3.6 secs

     total energy              =    -393.34112875 Ry
     Harris-Foulkes estimate   =    -412.16042066 Ry
     estimated scf accuracy    <      24.25207452 Ry

     iteration #  2     ecut=    15.00 Ry     beta= 0.70
     Davidson diagonalization with overlap
     ethr =  1.00E-02,  avg # of iterations =  3.3

     negative rho (up, down):  4.801E-03 0.000E+00

     total cpu time spent up to now is        6.5 secs

     total energy              =    -398.07791289 Ry
     Harris-Foulkes estimate   =    -400.42403400 Ry
     estimated scf accuracy    <       3.77298918 Ry

     iteration #  3     ecut=    15.00 Ry     beta= 0.70
     Davidson diagonalization with overlap
     ethr =  7.26E-03,  avg # of iterations =  3.4

     negative rho (up, down):  9.860E-04 0.000E+00

     total cpu time spent up to now is        9.2 secs

     total energy              =    -398.92051214 Ry
     Harris-Foulkes estimate   =    -399.35839567 Ry
     estimated scf accuracy    <       0.79675809 Ry

     iteration #  4     ecut=    15.00 Ry     beta= 0.70
     Davidson diagonalization with overlap
     ethr =  1.53E-03,  avg # of iterations =  2.5

     total cpu time spent up to now is       11.4 secs

     total energy              =    -399.08762332 Ry
     Harris-Foulkes estimate   =    -399.10148549 Ry
     estimated scf accuracy    <       0.03230429 Ry

     iteration #  5     ecut=    15.00 Ry     beta= 0.70
     Davidson diagonalization with overlap
     ethr =  6.21E-05,  avg # of iterations =  2.5

     total cpu time spent up to now is       13.4 secs

     total energy              =    -399.09261227 Ry
     Harris-Foulkes estimate   =    -399.09271501 Ry
     estimated scf accuracy    <       0.00053303 Ry

     iteration #  6     ecut=    15.00 Ry     beta= 0.70
     Davidson diagonalization with overlap
     ethr =  1.03E-06,  avg # of iterations =  3.9

     total cpu time spent up to now is       16.3 secs

     total energy              =    -399.09337449 Ry
     Harris-Foulkes estimate   =    -399.09368081 Ry
     estimated scf accuracy    <       0.00069081 Ry

     iteration #  7     ecut=    15.00 Ry     beta= 0.70
     Davidson diagonalization with overlap
     ethr =  1.03E-06,  avg # of iterations =  3.7

     total cpu time spent up to now is       18.8 secs

     total energy              =    -399.09353264 Ry
     Harris-Foulkes estimate   =    -399.09361323 Ry
     estimated scf accuracy    <       0.00024384 Ry

     iteration #  8     ecut=    15.00 Ry     beta= 0.70
     Davidson diagonalization with overlap
     ethr =  4.69E-07,  avg # of iterations =  3.1

     total cpu time spent up to now is       20.8 secs

     total energy              =    -399.09356046 Ry
     Harris-Foulkes estimate   =    -399.09356889 Ry
     estimated scf accuracy    <       0.00001474 Ry

     iteration #  9     ecut=    15.00 Ry     beta= 0.70
     Davidson diagonalization with overlap
     ethr =  2.83E-08,  avg # of iterations =  4.0

     total cpu time spent up to now is       23.7 secs

     total energy              =    -399.09356431 Ry
     Harris-Foulkes estimate   =    -399.09356896 Ry
     estimated scf accuracy    <       0.00001289 Ry

     iteration # 10     ecut=    15.00 Ry     beta= 0.70
     Davidson diagonalization with overlap
     ethr =  2.48E-08,  avg # of iterations =  3.3

     total cpu time spent up to now is       25.9 secs

     End of self-consistent calculation

     Number of k-points >= 100: set verbosity='high' to print the bands.

     highest occupied level (ev):    13.2835

!    total energy              =    -399.09356619 Ry
     Harris-Foulkes estimate   =    -399.09356644 Ry
     estimated scf accuracy    <       0.00000024 Ry

     The total energy is the sum of the following terms:

     one-electron contribution =     -51.22544844 Ry
     hartree contribution      =      63.87412216 Ry
     xc contribution           =    -109.26090391 Ry
     ewald contribution        =    -302.48133600 Ry

     convergence has been achieved in  10 iterations

     Forces acting on atoms (cartesian axes, Ry/au):

     atom    1 type  1   force =    -0.00132202   -0.00132202    0.00000000
     atom    2 type  1   force =    -0.00114483   -0.00114483    0.00000000
     atom    3 type  2   force =    -0.02551604    0.02915507    0.00000000
     atom    4 type  2   force =     0.02915507   -0.02551604    0.00000000
     atom    5 type  2   force =    -0.04598878   -0.04598878    0.00000000
     atom    6 type  2   force =     0.04481659    0.04481659    0.00000000

     Total force =     0.106091     Total SCF correction =     0.001968


     Computing stress (Cartesian axis) and pressure

          total   stress  (Ry/bohr**3)                   (kbar)     P=********
  -0.08356770   0.00000632   0.00000000     -12293.23      0.93      0.00
   0.00000632  -0.08356770  -0.00000000          0.93 -12293.23     -0.00
   0.00000000   0.00000000  -0.08027649          0.00      0.00 -11809.08


     BFGS Geometry Optimization

     number of scf cycles    =   1
     number of bfgs steps    =   0

     enthalpy new            =    -399.0935661923 Ry

     new trust radius        =       0.5000000000 bohr
     new conv_thr            =       0.0000010000 Ry

     new unit-cell volume =    357.56423 a.u.^3 (    52.98555 Ang^3 )
     density =      9.44622 g/cm^3

CELL_PARAMETERS (alat=  9.11000000)
   0.888922769   0.000000000   0.000000000
   0.000000000   0.888922769   0.000000000
   0.000000000   0.000000000   0.598509265

ATOMIC_POSITIONS (crystal)
Sn      -0.000007716  -0.000007716   0.000000000
Sn       0.499993319   0.499993319   0.500000000
O        0.805851084   0.193170154   0.500000000
O        0.193170154   0.805851084   0.500000000
O        0.305731602   0.305731602   0.000000000
O        0.693261557   0.693261557   0.000000000



     Writing output data file SnO2.save
     Check: negative starting charge=   -0.053732
     NEW-OLD atomic charge density approx. for the potential

     Check: negative/imaginary core charge=   -0.004868    0.000000
     Check: negative starting charge=   -0.031285

     negative rho (up, down):  3.876E+00 0.000E+00
     extrapolated charge   30.33324, renormalised to   52.00000

     total cpu time spent up to now is       27.1 secs

     Self-consistent Calculation

     iteration #  1     ecut=    15.00 Ry     beta= 0.70
     Davidson diagonalization with overlap
     c_bands:  1 eigenvalues not converged
     c_bands:  1 eigenvalues not converged
     ethr =  1.00E-06,  avg # of iterations = 13.4

     total cpu time spent up to now is       34.6 secs

     total energy              =    -386.22787021 Ry
     Harris-Foulkes estimate   =    -453.51305180 Ry
     estimated scf accuracy    <      76.18919311 Ry

     iteration #  2     ecut=    15.00 Ry     beta= 0.70
     Davidson diagonalization with overlap
     ethr =  1.00E-02,  avg # of iterations =  4.8

     total cpu time spent up to now is       38.2 secs

     total energy              =    -409.91975406 Ry
     Harris-Foulkes estimate   =    -418.83518454 Ry
     estimated scf accuracy    <      12.53682499 Ry

     iteration #  3     ecut=    15.00 Ry     beta= 0.70
     Davidson diagonalization with overlap
     ethr =  1.00E-02,  avg # of iterations =  3.0

     total cpu time spent up to now is       40.8 secs

     total energy              =    -413.06569666 Ry
     Harris-Foulkes estimate   =    -413.19263831 Ry
     estimated scf accuracy    <       0.25134389 Ry

     iteration #  4     ecut=    15.00 Ry     beta= 0.70
     Davidson diagonalization with overlap
     ethr =  4.83E-04,  avg # of iterations =  2.1

     total cpu time spent up to now is       42.9 secs

     total energy              =    -413.09532687 Ry
     Harris-Foulkes estimate   =    -413.11993641 Ry
     estimated scf accuracy    <       0.04201480 Ry

     iteration #  5     ecut=    15.00 Ry     beta= 0.70
     Davidson diagonalization with overlap
     ethr =  8.08E-05,  avg # of iterations =  3.0

     total cpu time spent up to now is       45.3 secs

     total energy              =    -413.10309382 Ry
     Harris-Foulkes estimate   =    -413.11113328 Ry
     estimated scf accuracy    <       0.01457938 Ry

     iteration #  6     ecut=    15.00 Ry     beta= 0.70
     Davidson diagonalization with overlap
     ethr =  2.80E-05,  avg # of iterations =  3.0

     total cpu time spent up to now is       47.7 secs

     total energy              =    -413.10668132 Ry
     Harris-Foulkes estimate   =    -413.10745161 Ry
     estimated scf accuracy    <       0.00160814 Ry

     iteration #  7     ecut=    15.00 Ry     beta= 0.70
     Davidson diagonalization with overlap
     ethr =  3.09E-06,  avg # of iterations =  2.6

     total cpu time spent up to now is       49.8 secs

     total energy              =    -413.10698541 Ry
     Harris-Foulkes estimate   =    -413.10698638 Ry
     estimated scf accuracy    <       0.00000281 Ry

     iteration #  8     ecut=    15.00 Ry     beta= 0.70
     Davidson diagonalization with overlap
     ethr =  5.40E-09,  avg # of iterations =  4.0

     total cpu time spent up to now is       52.9 secs

     total energy              =    -413.10698912 Ry
     Harris-Foulkes estimate   =    -413.10698967 Ry
     estimated scf accuracy    <       0.00000109 Ry

     iteration #  9     ecut=    15.00 Ry     beta= 0.70
     Davidson diagonalization with overlap
     ethr =  2.09E-09,  avg # of iterations =  3.0

     total cpu time spent up to now is       55.1 secs

     End of self-consistent calculation

     Number of k-points >= 100: set verbosity='high' to print the bands.

     highest occupied level (ev):    20.4932

!    total energy              =    -413.10698931 Ry
     Harris-Foulkes estimate   =    -413.10698939 Ry
     estimated scf accuracy    <       0.00000012 Ry

     The total energy is the sum of the following terms:

     one-electron contribution =     -18.77251046 Ry
     hartree contribution      =      60.30292759 Ry
     xc contribution           =    -114.71504404 Ry
     ewald contribution        =    -339.92236239 Ry

     convergence has been achieved in   9 iterations

     Forces acting on atoms (cartesian axes, Ry/au):

     atom    1 type  1   force =    -0.00073627   -0.00073627    0.00000000
     atom    2 type  1   force =    -0.00047925   -0.00047925    0.00000000
     atom    3 type  2   force =    -0.08304264    0.07854017    0.00000000
     atom    4 type  2   force =     0.07854017   -0.08304264    0.00000000
     atom    5 type  2   force =    -0.08677660   -0.08677660    0.00000000
     atom    6 type  2   force =     0.09249459    0.09249459    0.00000000

     Total force =     0.241457     Total SCF correction =     0.001864


     Computing stress (Cartesian axis) and pressure

          total   stress  (Ry/bohr**3)                   (kbar)     P=********
  -0.10643134  -0.00001157   0.00000000     -15656.59     -1.70      0.00
  -0.00001157  -0.10643134   0.00000000         -1.70 -15656.59      0.00
   0.00000000   0.00000000  -0.10132720          0.00      0.00 -14905.74


     number of scf cycles    =   2
     number of bfgs steps    =   1

     enthalpy old            =    -399.0935661923 Ry
     enthalpy new            =    -413.1069893053 Ry

     CASE: enthalpy_new < enthalpy_old


     WARNING: bfgs curvature condition failed, Theta= 0.707
     uphill step: resetting bfgs history

     new trust radius        =       0.7088580910 bohr
     new conv_thr            =       0.0000000925 Ry

     new unit-cell volume =    193.95690 a.u.^3 (    28.74145 Ang^3 )
     density =     17.41433 g/cm^3

CELL_PARAMETERS (alat=  9.11000000)
   0.722306921   0.000000000   0.000000000
   0.000000000   0.722306921   0.000000000
   0.000000000   0.000000000   0.491707191

ATOMIC_POSITIONS (crystal)
Sn      -0.000014120  -0.000014120   0.000000000
Sn       0.499989150   0.499989150   0.500000000
O        0.805128711   0.193853361   0.500000000
O        0.193853361   0.805128711   0.500000000
O        0.304976748   0.304976748   0.000000000
O        0.694066151   0.694066151   0.000000000



     Writing output data file SnO2.save
     Check: negative starting charge=   -0.031285
     NEW-OLD atomic charge density approx. for the potential

     Check: negative/imaginary core charge=   -0.002633    0.000000
     Check: negative starting charge=   -0.002662

     negative rho (up, down):  1.155E+01 0.000E+00
     extrapolated charge    8.13936, renormalised to   52.00000

     total cpu time spent up to now is       56.3 secs

     Self-consistent Calculation

     iteration #  1     ecut=    15.00 Ry     beta= 0.70
     Davidson diagonalization with overlap
     c_bands:  1 eigenvalues not converged
     ethr =  1.00E-06,  avg # of iterations = 14.3

     negative rho (up, down):  1.134E+01 0.000E+00

     total cpu time spent up to now is       65.5 secs

     total energy              =    -468.83904915 Ry
     Harris-Foulkes estimate   =    -775.97368809 Ry
     estimated scf accuracy    <    1468.89497903 Ry

     iteration #  2     ecut=    15.00 Ry     beta= 0.70
     Davidson diagonalization with overlap
     ethr =  1.00E-02,  avg # of iterations =  5.9

     total cpu time spent up to now is       69.4 secs

     total energy              =    -393.68638496 Ry
     Harris-Foulkes estimate   =    -478.05280855 Ry
     estimated scf accuracy    <     108.21712696 Ry

     iteration #  3     ecut=    15.00 Ry     beta= 0.70
     Davidson diagonalization with overlap
     ethr =  1.00E-02,  avg # of iterations =  4.8

     total cpu time spent up to now is       73.0 secs

     total energy              =    -433.55063355 Ry
     Harris-Foulkes estimate   =    -445.27786479 Ry
     estimated scf accuracy    <      36.55631463 Ry

     iteration #  4     ecut=    15.00 Ry     beta= 0.70
     Davidson diagonalization with overlap
     ethr =  1.00E-02,  avg # of iterations =  4.0

     total cpu time spent up to now is       75.7 secs

     total energy              =    -429.66150723 Ry
     Harris-Foulkes estimate   =    -435.15291973 Ry
     estimated scf accuracy    <      11.55797044 Ry

     iteration #  5     ecut=    15.00 Ry     beta= 0.70
     Davidson diagonalization with overlap
     ethr =  1.00E-02,  avg # of iterations =  2.6

     total cpu time spent up to now is       77.8 secs

     total energy              =    -428.87224166 Ry
     Harris-Foulkes estimate   =    -430.18861089 Ry
     estimated scf accuracy    <       3.13779820 Ry

     iteration #  6     ecut=    15.00 Ry     beta= 0.70
     Davidson diagonalization with overlap
     ethr =  6.03E-03,  avg # of iterations =  1.7

     negative rho (up, down):  8.165E-03 0.000E+00

     total cpu time spent up to now is       79.4 secs

     total energy              =    -428.33169426 Ry
     Harris-Foulkes estimate   =    -429.02300566 Ry
     estimated scf accuracy    <       1.03883611 Ry

     iteration #  7     ecut=    15.00 Ry     beta= 0.70
     Davidson diagonalization with overlap
     ethr =  2.00E-03,  avg # of iterations =  2.2

     total cpu time spent up to now is       81.5 secs

     total energy              =    -428.45917427 Ry
     Harris-Foulkes estimate   =    -428.49281328 Ry
     estimated scf accuracy    <       0.08451265 Ry

     iteration #  8     ecut=    15.00 Ry     beta= 0.70
     Davidson diagonalization with overlap
     ethr =  1.63E-04,  avg # of iterations =  1.5

     total cpu time spent up to now is       83.1 secs

     total energy              =    -428.45612952 Ry
     Harris-Foulkes estimate   =    -428.46335564 Ry
     estimated scf accuracy    <       0.02214014 Ry

     iteration #  9     ecut=    15.00 Ry     beta= 0.70
     Davidson diagonalization with overlap
     ethr =  4.26E-05,  avg # of iterations =  1.9

     total cpu time spent up to now is       84.8 secs

     total energy              =    -428.45389865 Ry
     Harris-Foulkes estimate   =    -428.45734187 Ry
     estimated scf accuracy    <       0.00663495 Ry

     iteration # 10     ecut=    15.00 Ry     beta= 0.70
     Davidson diagonalization with overlap
     ethr =  1.28E-05,  avg # of iterations =  2.0

     total cpu time spent up to now is       86.6 secs

     total energy              =    -428.45376711 Ry
     Harris-Foulkes estimate   =    -428.45447019 Ry
     estimated scf accuracy    <       0.00102302 Ry

     iteration # 11     ecut=    15.00 Ry     beta= 0.70
     Davidson diagonalization with overlap
     ethr =  1.97E-06,  avg # of iterations =  2.0

     total cpu time spent up to now is       88.8 secs

     total energy              =    -428.45391042 Ry
     Harris-Foulkes estimate   =    -428.45392527 Ry
     estimated scf accuracy    <       0.00002267 Ry

     iteration # 12     ecut=    15.00 Ry     beta= 0.70
     Davidson diagonalization with overlap
     ethr =  4.36E-08,  avg # of iterations =  2.3

     total cpu time spent up to now is       91.1 secs

     total energy              =    -428.45391576 Ry
     Harris-Foulkes estimate   =    -428.45391582 Ry
     estimated scf accuracy    <       0.00000012 Ry

     iteration # 13     ecut=    15.00 Ry     beta= 0.70
     Davidson diagonalization with overlap
     ethr =  2.25E-10,  avg # of iterations =  2.8

     total cpu time spent up to now is       93.5 secs

     End of self-consistent calculation

     Number of k-points >= 100: set verbosity='high' to print the bands.

     highest occupied level (ev):    39.7037

!    total energy              =    -428.45391580 Ry
     Harris-Foulkes estimate   =    -428.45391580 Ry
     estimated scf accuracy    <          6.4E-09 Ry

     The total energy is the sum of the following terms:

     one-electron contribution =      62.04901965 Ry
     hartree contribution      =      52.63896319 Ry
     xc contribution           =    -125.77692465 Ry
     ewald contribution        =    -417.36497400 Ry

     convergence has been achieved in  13 iterations

     Forces acting on atoms (cartesian axes, Ry/au):

     atom    1 type  1   force =    -0.01426909   -0.01426909    0.00000000
     atom    2 type  1   force =    -0.00701710   -0.00701710    0.00000000
     atom    3 type  2   force =    -0.24629644    0.23521576    0.00000000
     atom    4 type  2   force =     0.23521576   -0.24629644   -0.00000000
     atom    5 type  2   force =    -0.21767086   -0.21767086    0.00000000
     atom    6 type  2   force =     0.25003773    0.25003773    0.00000000

     Total force =     0.672519     Total SCF correction =     0.000106


     Computing stress (Cartesian axis) and pressure

          total   stress  (Ry/bohr**3)                   (kbar)     P=-5582.92
  -0.04453693   0.00009652   0.00000000      -6551.61     14.20      0.00
   0.00009652  -0.04453693   0.00000000         14.20  -6551.61      0.00
   0.00000000   0.00000000  -0.02478189          0.00      0.00  -3645.54


     number of scf cycles    =   3
     number of bfgs steps    =   2

     enthalpy old            =    -413.1069893053 Ry
     enthalpy new            =    -428.4539158000 Ry

     CASE: enthalpy_new < enthalpy_old

     new trust radius        =       0.7046178657 bohr
     new conv_thr            =       0.0000002500 Ry

     new unit-cell volume =    134.41819 a.u.^3 (    19.91872 Ang^3 )
     density =     25.12777 g/cm^3

CELL_PARAMETERS (alat=  9.11000000)
   0.539584091   0.000000000   0.000000000
   0.000000000   0.539584091   0.000000000
   0.000000000   0.000000000   0.610639157

ATOMIC_POSITIONS (crystal)
Sn      -0.001878932  -0.001878932   0.000000000
Sn       0.499076315   0.499076315   0.500000000
O        0.775474507   0.222201060   0.500000000
O        0.222201060   0.775474507   0.500000000
O        0.279251332   0.279251332   0.000000000
O        0.723875719   0.723875719   0.000000000



     Writing output data file SnO2.save
     Check: negative starting charge=   -0.002662
     NEW-OLD atomic charge density approx. for the potential

     Check: negative/imaginary core charge=   -0.002618    0.000000
     Check: negative starting charge=   -0.000325

     negative rho (up, down):  6.613E-01 0.000E+00
     extrapolated charge   28.96868, renormalised to   52.00000

     total cpu time spent up to now is       94.7 secs

     Self-consistent Calculation

     iteration #  1     ecut=    15.00 Ry     beta= 0.70
     Davidson diagonalization with overlap
     ethr =  1.00E-06,  avg # of iterations = 12.3

     total cpu time spent up to now is      102.1 secs

     total energy              =    -400.11368861 Ry
     Harris-Foulkes estimate   =    -403.66960463 Ry
     estimated scf accuracy    <      17.29342455 Ry

     iteration #  2     ecut=    15.00 Ry     beta= 0.70
     Davidson diagonalization with overlap
     ethr =  1.00E-02,  avg # of iterations =  3.7

     total cpu time spent up to now is      105.1 secs

     total energy              =    -408.24200798 Ry
     Harris-Foulkes estimate   =    -411.17380444 Ry
     estimated scf accuracy    <       5.08129849 Ry

     iteration #  3     ecut=    15.00 Ry     beta= 0.70
     Davidson diagonalization with overlap
     ethr =  9.77E-03,  avg # of iterations =  2.5

     total cpu time spent up to now is      107.1 secs

     total energy              =    -408.72630519 Ry
     Harris-Foulkes estimate   =    -408.86086425 Ry
     estimated scf accuracy    <       0.23097494 Ry

     iteration #  4     ecut=    15.00 Ry     beta= 0.70
     Davidson diagonalization with overlap
     ethr =  4.44E-04,  avg # of iterations =  3.4

     total cpu time spent up to now is      109.9 secs

     total energy              =    -408.79933492 Ry
     Harris-Foulkes estimate   =    -408.80252644 Ry
     estimated scf accuracy    <       0.00683994 Ry

     iteration #  5     ecut=    15.00 Ry     beta= 0.70
     Davidson diagonalization with overlap
     ethr =  1.32E-05,  avg # of iterations =  2.9

     total cpu time spent up to now is      112.2 secs

     total energy              =    -408.80137145 Ry
     Harris-Foulkes estimate   =    -408.80195027 Ry
     estimated scf accuracy    <       0.00095878 Ry

     iteration #  6     ecut=    15.00 Ry     beta= 0.70
     Davidson diagonalization with overlap
     ethr =  1.84E-06,  avg # of iterations =  2.8

     total cpu time spent up to now is      114.6 secs

     total energy              =    -408.80153403 Ry
     Harris-Foulkes estimate   =    -408.80156237 Ry
     estimated scf accuracy    <       0.00004629 Ry

     iteration #  7     ecut=    15.00 Ry     beta= 0.70
     Davidson diagonalization with overlap
     ethr =  8.90E-08,  avg # of iterations =  3.0

     total cpu time spent up to now is      117.1 secs

     total energy              =    -408.80154552 Ry
     Harris-Foulkes estimate   =    -408.80154607 Ry
     estimated scf accuracy    <       0.00000304 Ry

     iteration #  8     ecut=    15.00 Ry     beta= 0.70
     Davidson diagonalization with overlap
     ethr =  5.85E-09,  avg # of iterations =  3.1

     total cpu time spent up to now is      119.5 secs

     total energy              =    -408.80154583 Ry
     Harris-Foulkes estimate   =    -408.80154620 Ry
     estimated scf accuracy    <       0.00000065 Ry

     iteration #  9     ecut=    15.00 Ry     beta= 0.70
     Davidson diagonalization with overlap
     ethr =  1.26E-09,  avg # of iterations =  2.3

     total cpu time spent up to now is      121.6 secs

     End of self-consistent calculation

     Number of k-points >= 100: set verbosity='high' to print the bands.

     highest occupied level (ev):    63.8818

!    total energy              =    -408.80154589 Ry
     Harris-Foulkes estimate   =    -408.80154593 Ry
     estimated scf accuracy    <       0.00000005 Ry

     The total energy is the sum of the following terms:

     one-electron contribution =     146.43676330 Ry
     hartree contribution      =      37.37772794 Ry
     xc contribution           =    -130.91783107 Ry
     ewald contribution        =    -461.69820606 Ry

     convergence has been achieved in   9 iterations

     Forces acting on atoms (cartesian axes, Ry/au):

     atom    1 type  1   force =     0.89702076    0.89702076    0.00000000
     atom    2 type  1   force =     0.01345345    0.01345345    0.00000000
     atom    3 type  2   force =     8.76979677   -8.74522939    0.00000000
     atom    4 type  2   force =    -8.74522939    8.76979677    0.00000000
     atom    5 type  2   force =     8.11862284    8.11862284    0.00000000
     atom    6 type  2   force =    -9.05366443   -9.05366443    0.00000000

     Total force =    24.579425     Total SCF correction =     0.000869


     Computing stress (Cartesian axis) and pressure

          total   stress  (Ry/bohr**3)                   (kbar)     P=31343.17
   0.43357279  -0.00254463   0.00000000      63780.75   -374.33      0.00
  -0.00254463   0.43357279  -0.00000000       -374.33  63780.75     -0.00
  -0.00000000   0.00000000  -0.22794577         -0.00      0.00 -33531.98


     number of scf cycles    =   4
     number of bfgs steps    =   3

     enthalpy old            =    -428.4539158000 Ry
     enthalpy new            =    -408.8015458884 Ry

     CASE: enthalpy_new > enthalpy_old

     new trust radius        =       0.0602698479 bohr
     new conv_thr            =       0.0000002500 Ry

     new unit-cell volume =    189.96034 a.u.^3 (    28.14922 Ang^3 )
     density =     17.78071 g/cm^3

CELL_PARAMETERS (alat=  9.11000000)
   0.708282007   0.000000000   0.000000000
   0.000000000   0.708282007   0.000000000
   0.000000000   0.000000000   0.500835829

ATOMIC_POSITIONS (crystal)
Sn      -0.000157254  -0.000157254   0.000000000
Sn       0.499919085   0.499919085   0.500000000
O        0.802852599   0.196029192   0.500000000
O        0.196029192   0.802852599   0.500000000
O        0.303002190   0.303002190   0.000000000
O        0.696354188   0.696354188   0.000000000



     Writing output data file SnO2.save
     Check: negative starting charge=   -0.000325
     NEW-OLD atomic charge density approx. for the potential

     Check: negative/imaginary core charge=   -0.002536    0.000000
     Check: negative starting charge=   -0.002005
     extrapolated charge   67.20328, renormalised to   52.00000

     total cpu time spent up to now is      122.8 secs

     Self-consistent Calculation

     iteration #  1     ecut=    15.00 Ry     beta= 0.70
     Davidson diagonalization with overlap
     ethr =  1.00E-06,  avg # of iterations = 15.1

     total cpu time spent up to now is      130.1 secs

     total energy              =    -424.51457086 Ry
     Harris-Foulkes estimate   =    -427.91795902 Ry
     estimated scf accuracy    <       1.85942257 Ry

     iteration #  2     ecut=    15.00 Ry     beta= 0.70
     Davidson diagonalization with overlap
     ethr =  3.58E-03,  avg # of iterations =  4.3

     total cpu time spent up to now is      133.6 secs

     total energy              =    -428.97807571 Ry
     Harris-Foulkes estimate   =    -430.12940865 Ry
     estimated scf accuracy    <       3.03027391 Ry

     iteration #  3     ecut=    15.00 Ry     beta= 0.70
     Davidson diagonalization with overlap
     ethr =  3.58E-03,  avg # of iterations =  1.3

     total cpu time spent up to now is      135.2 secs

     total energy              =    -428.46955160 Ry
     Harris-Foulkes estimate   =    -429.07322608 Ry
     estimated scf accuracy    <       0.96062769 Ry

     iteration #  4     ecut=    15.00 Ry     beta= 0.70
     Davidson diagonalization with overlap
     ethr =  1.85E-03,  avg # of iterations =  2.0

     total cpu time spent up to now is      137.5 secs

     total energy              =    -428.63134328 Ry
     Harris-Foulkes estimate   =    -428.63221079 Ry
     estimated scf accuracy    <       0.00234511 Ry

     iteration #  5     ecut=    15.00 Ry     beta= 0.70
     Davidson diagonalization with overlap
     ethr =  4.51E-06,  avg # of iterations =  2.7

     total cpu time spent up to now is      140.0 secs

     total energy              =    -428.63198862 Ry
     Harris-Foulkes estimate   =    -428.63245953 Ry
     estimated scf accuracy    <       0.00079087 Ry

     iteration #  6     ecut=    15.00 Ry     beta= 0.70
     Davidson diagonalization with overlap
     ethr =  1.52E-06,  avg # of iterations =  2.0

     total cpu time spent up to now is      142.1 secs

     total energy              =    -428.63209336 Ry
     Harris-Foulkes estimate   =    -428.63214834 Ry
     estimated scf accuracy    <       0.00008361 Ry

     iteration #  7     ecut=    15.00 Ry     beta= 0.70
     Davidson diagonalization with overlap
     ethr =  1.61E-07,  avg # of iterations =  2.1

     total cpu time spent up to now is      144.4 secs

     total energy              =    -428.63210955 Ry
     Harris-Foulkes estimate   =    -428.63211200 Ry
     estimated scf accuracy    <       0.00000519 Ry

     iteration #  8     ecut=    15.00 Ry     beta= 0.70
     Davidson diagonalization with overlap
     ethr =  9.98E-09,  avg # of iterations =  2.0

     total cpu time spent up to now is      146.6 secs

     End of self-consistent calculation

     Number of k-points >= 100: set verbosity='high' to print the bands.

     highest occupied level (ev):    40.6713

!    total energy              =    -428.63211051 Ry
     Harris-Foulkes estimate   =    -428.63211064 Ry
     estimated scf accuracy    <       0.00000022 Ry

     The total energy is the sum of the following terms:

     one-electron contribution =      68.37165399 Ry
     hartree contribution      =      50.99197210 Ry
     xc contribution           =    -126.08456933 Ry
     ewald contribution        =    -421.91116727 Ry

     convergence has been achieved in   8 iterations

     Forces acting on atoms (cartesian axes, Ry/au):

     atom    1 type  1   force =    -0.00308862   -0.00308862    0.00000000
     atom    2 type  1   force =    -0.00078384   -0.00078384    0.00000000
     atom    3 type  2   force =     0.02642735   -0.03432786    0.00000000
     atom    4 type  2   force =    -0.03432786    0.02642735    0.00000000
     atom    5 type  2   force =     0.03877078    0.03877078    0.00000000
     atom    6 type  2   force =    -0.02699781   -0.02699781    0.00000000

     Total force =     0.090764     Total SCF correction =     0.000850


     Computing stress (Cartesian axis) and pressure

          total   stress  (Ry/bohr**3)                   (kbar)     P=-4657.31
  -0.02857683   0.00007480   0.00000000      -4203.80     11.00      0.00
   0.00007480  -0.02857683   0.00000000         11.00  -4203.80      0.00
   0.00000000   0.00000000  -0.03782555          0.00      0.00  -5564.33


     number of scf cycles    =   5
     number of bfgs steps    =   3

     enthalpy old            =    -428.4539158000 Ry
     enthalpy new            =    -428.6321105067 Ry

     CASE: enthalpy_new < enthalpy_old

     new trust radius        =       0.1637482701 bohr
     new conv_thr            =       0.0000000388 Ry

     new unit-cell volume =    169.74129 a.u.^3 (    25.15306 Ang^3 )
     density =     19.89869 g/cm^3

CELL_PARAMETERS (alat=  9.11000000)
   0.690346150   0.000000000   0.000000000
   0.000000000   0.690346150   0.000000000
   0.000000000   0.000000000   0.471084207

ATOMIC_POSITIONS (crystal)
Sn      -0.000605278  -0.000605278   0.000000000
Sn       0.499744645   0.499744645   0.500000000
O        0.801198612   0.197083733   0.500000000
O        0.197083733   0.801198612   0.500000000
O        0.302711621   0.302711621   0.000000000
O        0.697866668   0.697866668   0.000000000



     Writing output data file SnO2.save
     Check: negative starting charge=   -0.002005
     NEW-OLD atomic charge density approx. for the potential

     Check: negative/imaginary core charge=   -0.002002    0.000000
     Check: negative starting charge=   -0.000591
     extrapolated charge   45.80629, renormalised to   52.00000

     total cpu time spent up to now is      147.8 secs

     Self-consistent Calculation

     iteration #  1     ecut=    15.00 Ry     beta= 0.70
     Davidson diagonalization with overlap
     ethr =  1.00E-06,  avg # of iterations =  5.4

     total cpu time spent up to now is      152.2 secs

     total energy              =    -427.98054736 Ry
     Harris-Foulkes estimate   =    -429.19221199 Ry
     estimated scf accuracy    <       0.85787090 Ry

     iteration #  2     ecut=    15.00 Ry     beta= 0.70
     Davidson diagonalization with overlap
     ethr =  1.65E-03,  avg # of iterations =  3.1

     total cpu time spent up to now is      154.9 secs

     total energy              =    -428.76284887 Ry
     Harris-Foulkes estimate   =    -428.92549267 Ry
     estimated scf accuracy    <       0.34565268 Ry

     iteration #  3     ecut=    15.00 Ry     beta= 0.70
     Davidson diagonalization with overlap
     ethr =  6.65E-04,  avg # of iterations =  2.2

     total cpu time spent up to now is      156.8 secs

     total energy              =    -428.77093473 Ry
     Harris-Foulkes estimate   =    -428.79095240 Ry
     estimated scf accuracy    <       0.03548520 Ry

     iteration #  4     ecut=    15.00 Ry     beta= 0.70
     Davidson diagonalization with overlap
     ethr =  6.82E-05,  avg # of iterations =  2.6

     total cpu time spent up to now is      159.2 secs

     total energy              =    -428.77755043 Ry
     Harris-Foulkes estimate   =    -428.77761708 Ry
     estimated scf accuracy    <       0.00016154 Ry

     iteration #  5     ecut=    15.00 Ry     beta= 0.70
     Davidson diagonalization with overlap
     ethr =  3.11E-07,  avg # of iterations =  2.6

     total cpu time spent up to now is      161.6 secs

     total energy              =    -428.77756152 Ry
     Harris-Foulkes estimate   =    -428.77759149 Ry
     estimated scf accuracy    <       0.00005541 Ry

     iteration #  6     ecut=    15.00 Ry     beta= 0.70
     Davidson diagonalization with overlap
     ethr =  1.07E-07,  avg # of iterations =  2.0

     total cpu time spent up to now is      163.6 secs

     total energy              =    -428.77756400 Ry
     Harris-Foulkes estimate   =    -428.77756766 Ry
     estimated scf accuracy    <       0.00000686 Ry

     iteration #  7     ecut=    15.00 Ry     beta= 0.70
     Davidson diagonalization with overlap
     ethr =  1.32E-08,  avg # of iterations =  2.2

     total cpu time spent up to now is      165.7 secs

     total energy              =    -428.77756462 Ry
     Harris-Foulkes estimate   =    -428.77756493 Ry
     estimated scf accuracy    <       0.00000046 Ry

     iteration #  8     ecut=    15.00 Ry     beta= 0.70
     Davidson diagonalization with overlap
     ethr =  8.88E-10,  avg # of iterations =  2.6

     total cpu time spent up to now is      168.2 secs

     End of self-consistent calculation

     Number of k-points >= 100: set verbosity='high' to print the bands.

     highest occupied level (ev):    45.6825

!    total energy              =    -428.77756472 Ry
     Harris-Foulkes estimate   =    -428.77756473 Ry
     estimated scf accuracy    <          9.6E-09 Ry

     The total energy is the sum of the following terms:

     one-electron contribution =      86.39198373 Ry
     hartree contribution      =      49.89244371 Ry
     xc contribution           =    -128.24984439 Ry
     ewald contribution        =    -436.81214778 Ry

     convergence has been achieved in   8 iterations

     Forces acting on atoms (cartesian axes, Ry/au):

     atom    1 type  1   force =     0.06581815    0.06581815    0.00000000
     atom    2 type  1   force =     0.02198664    0.02198664    0.00000000
     atom    3 type  2   force =    -0.10460402    0.10571064    0.00000000
     atom    4 type  2   force =     0.10571064   -0.10460402    0.00000000
     atom    5 type  2   force =    -0.17371525   -0.17371525    0.00000000
     atom    6 type  2   force =     0.08480384    0.08480384    0.00000000

     Total force =     0.358611     Total SCF correction =     0.000367


     Computing stress (Cartesian axis) and pressure

          total   stress  (Ry/bohr**3)                   (kbar)     P= 2854.54
   0.01274009  -0.00016386  -0.00000000       1874.13    -24.10     -0.00
  -0.00016386   0.01274009   0.00000000        -24.10   1874.13      0.00
   0.00000000   0.00000000   0.03273405          0.00      0.00   4815.34


     number of scf cycles    =   6
     number of bfgs steps    =   4

     enthalpy old            =    -428.6321105067 Ry
     enthalpy new            =    -428.7775647226 Ry

     CASE: enthalpy_new < enthalpy_old

     new trust radius        =       0.0913250177 bohr
     new conv_thr            =       0.0000001737 Ry

     new unit-cell volume =    176.40748 a.u.^3 (    26.14089 Ang^3 )
     density =     19.14675 g/cm^3

CELL_PARAMETERS (alat=  9.11000000)
   0.691753499   0.000000000   0.000000000
   0.000000000   0.691753499   0.000000000
   0.000000000   0.000000000   0.487594873

ATOMIC_POSITIONS (crystal)
Sn       0.003530446   0.003530446   0.000000000
Sn       0.501207662   0.501207662   0.500000000
O        0.803634459   0.194695483   0.500000000
O        0.194695483   0.803634459   0.500000000
O        0.300730750   0.300730750   0.000000000
O        0.694201200   0.694201200   0.000000000



     Writing output data file SnO2.save
     Check: negative starting charge=   -0.000591
     NEW-OLD atomic charge density approx. for the potential

     Check: negative/imaginary core charge=   -0.002193    0.000000
     Check: negative starting charge=   -0.000862

     negative rho (up, down):  2.680E-04 0.000E+00
     extrapolated charge   53.96489, renormalised to   52.00000

     total cpu time spent up to now is      169.4 secs

     Self-consistent Calculation

     iteration #  1     ecut=    15.00 Ry     beta= 0.70
     Davidson diagonalization with overlap
     ethr =  1.00E-06,  avg # of iterations =  6.4

     negative rho (up, down):  4.781E-05 0.000E+00

     total cpu time spent up to now is      173.8 secs

     total energy              =    -428.75286889 Ry
     Harris-Foulkes estimate   =    -428.73372519 Ry
     estimated scf accuracy    <       0.08289404 Ry

     iteration #  2     ecut=    15.00 Ry     beta= 0.70
     Davidson diagonalization with overlap
     ethr =  1.59E-04,  avg # of iterations =  3.3

     negative rho (up, down):  8.593E-06 0.000E+00

     total cpu time spent up to now is      176.7 secs

     total energy              =    -428.84979771 Ry
     Harris-Foulkes estimate   =    -428.87167350 Ry
     estimated scf accuracy    <       0.04804121 Ry

     iteration #  3     ecut=    15.00 Ry     beta= 0.70
     Davidson diagonalization with overlap
     ethr =  9.24E-05,  avg # of iterations =  1.6

     total cpu time spent up to now is      178.3 secs

     total energy              =    -428.84856632 Ry
     Harris-Foulkes estimate   =    -428.85283089 Ry
     estimated scf accuracy    <       0.00734279 Ry

     iteration #  4     ecut=    15.00 Ry     beta= 0.70
     Davidson diagonalization with overlap
     ethr =  1.41E-05,  avg # of iterations =  2.3

     total cpu time spent up to now is      180.6 secs

     total energy              =    -428.84994290 Ry
     Harris-Foulkes estimate   =    -428.84995826 Ry
     estimated scf accuracy    <       0.00003623 Ry

     iteration #  5     ecut=    15.00 Ry     beta= 0.70
     Davidson diagonalization with overlap
     ethr =  6.97E-08,  avg # of iterations =  2.7

     total cpu time spent up to now is      183.1 secs

     total energy              =    -428.84994991 Ry
     Harris-Foulkes estimate   =    -428.84995346 Ry
     estimated scf accuracy    <       0.00000747 Ry

     iteration #  6     ecut=    15.00 Ry     beta= 0.70
     Davidson diagonalization with overlap
     ethr =  1.44E-08,  avg # of iterations =  2.0

     total cpu time spent up to now is      185.0 secs

     total energy              =    -428.84994952 Ry
     Harris-Foulkes estimate   =    -428.84995057 Ry
     estimated scf accuracy    <       0.00000178 Ry

     iteration #  7     ecut=    15.00 Ry     beta= 0.70
     Davidson diagonalization with overlap
     ethr =  3.42E-09,  avg # of iterations =  2.2

     total cpu time spent up to now is      187.2 secs

     End of self-consistent calculation

     Number of k-points >= 100: set verbosity='high' to print the bands.

     highest occupied level (ev):    43.9604

!    total energy              =    -428.84994973 Ry
     Harris-Foulkes estimate   =    -428.84994977 Ry
     estimated scf accuracy    <       0.00000005 Ry

     The total energy is the sum of the following terms:

     one-electron contribution =      81.03916282 Ry
     hartree contribution      =      49.83353236 Ry
     xc contribution           =    -127.47175731 Ry
     ewald contribution        =    -432.25088760 Ry

     convergence has been achieved in   7 iterations

     Forces acting on atoms (cartesian axes, Ry/au):

     atom    1 type  1   force =    -0.33334738   -0.33334738    0.00000000
     atom    2 type  1   force =    -0.05718796   -0.05718796    0.00000000
     atom    3 type  2   force =    -0.08552364   -0.02759309    0.00000000
     atom    4 type  2   force =    -0.02759309   -0.08552364    0.00000000
     atom    5 type  2   force =     0.30373851    0.30373851    0.00000000
     atom    6 type  2   force =     0.19991356    0.19991356    0.00000000

     Total force =     0.713707     Total SCF correction =     0.000682


     Computing stress (Cartesian axis) and pressure

          total   stress  (Ry/bohr**3)                   (kbar)     P= -103.16
   0.00024813   0.00084241   0.00000000         36.50    123.92      0.00
   0.00084241   0.00024813   0.00000000        123.92     36.50      0.00
   0.00000000  -0.00000000  -0.00260000          0.00     -0.00   -382.47


     number of scf cycles    =   7
     number of bfgs steps    =   5

     enthalpy old            =    -428.7775647227 Ry
     enthalpy new            =    -428.8499497318 Ry

     CASE: enthalpy_new < enthalpy_old

     new trust radius        =       0.1916442743 bohr
     new conv_thr            =       0.0000003333 Ry

     new unit-cell volume =    183.43902 a.u.^3 (    27.18286 Ang^3 )
     density =     18.41282 g/cm^3

CELL_PARAMETERS (alat=  9.11000000)
   0.695541746   0.000000000   0.000000000
   0.000000000   0.695541746   0.000000000
   0.000000000   0.000000000   0.501522227

ATOMIC_POSITIONS (crystal)
Sn      -0.017973150  -0.017973150   0.000000000
Sn       0.498219771   0.498219771   0.500000000
O        0.797972413   0.191797644   0.500000000
O        0.191797644   0.797972413   0.500000000
O        0.320544584   0.320544584   0.000000000
O        0.707438738   0.707438738   0.000000000



     Writing output data file SnO2.save
     Check: negative starting charge=   -0.000862
     NEW-OLD atomic charge density approx. for the potential

     Check: negative/imaginary core charge=   -0.002335    0.000000
     Check: negative starting charge=   -0.000120

     negative rho (up, down):  5.594E-03 0.000E+00
     extrapolated charge   53.99313, renormalised to   52.00000

     total cpu time spent up to now is      188.3 secs

     Self-consistent Calculation

     iteration #  1     ecut=    15.00 Ry     beta= 0.70
     Davidson diagonalization with overlap
     ethr =  1.00E-06,  avg # of iterations =  7.9

     negative rho (up, down):  9.383E-04 0.000E+00

     total cpu time spent up to now is      193.8 secs

     total energy              =    -428.20083250 Ry
     Harris-Foulkes estimate   =    -428.11181705 Ry
     estimated scf accuracy    <       0.17884615 Ry

     iteration #  2     ecut=    15.00 Ry     beta= 0.70
     Davidson diagonalization with overlap
     ethr =  3.44E-04,  avg # of iterations =  3.1

     negative rho (up, down):  6.288E-05 0.000E+00

     total cpu time spent up to now is      196.5 secs

     total energy              =    -428.31027490 Ry
     Harris-Foulkes estimate   =    -428.33789385 Ry
     estimated scf accuracy    <       0.05827233 Ry

     iteration #  3     ecut=    15.00 Ry     beta= 0.70
     Davidson diagonalization with overlap
     ethr =  1.12E-04,  avg # of iterations =  2.0

     total cpu time spent up to now is      198.4 secs

     total energy              =    -428.31431156 Ry
     Harris-Foulkes estimate   =    -428.31605698 Ry
     estimated scf accuracy    <       0.00450450 Ry

     iteration #  4     ecut=    15.00 Ry     beta= 0.70
     Davidson diagonalization with overlap
     ethr =  8.66E-06,  avg # of iterations =  2.5

     total cpu time spent up to now is      200.8 secs

     total energy              =    -428.31505572 Ry
     Harris-Foulkes estimate   =    -428.31512272 Ry
     estimated scf accuracy    <       0.00015448 Ry

     iteration #  5     ecut=    15.00 Ry     beta= 0.70
     Davidson diagonalization with overlap
     ethr =  2.97E-07,  avg # of iterations =  3.0

     total cpu time spent up to now is      203.3 secs

     total energy              =    -428.31508405 Ry
     Harris-Foulkes estimate   =    -428.31509663 Ry
     estimated scf accuracy    <       0.00002394 Ry

     iteration #  6     ecut=    15.00 Ry     beta= 0.70
     Davidson diagonalization with overlap
     ethr =  4.60E-08,  avg # of iterations =  2.6

     total cpu time spent up to now is      205.6 secs

     total energy              =    -428.31508811 Ry
     Harris-Foulkes estimate   =    -428.31508941 Ry
     estimated scf accuracy    <       0.00000242 Ry

     iteration #  7     ecut=    15.00 Ry     beta= 0.70
     Davidson diagonalization with overlap
     ethr =  4.65E-09,  avg # of iterations =  2.2

     total cpu time spent up to now is      207.8 secs

     End of self-consistent calculation

     Number of k-points >= 100: set verbosity='high' to print the bands.

     highest occupied level (ev):    42.4460

!    total energy              =    -428.31508863 Ry
     Harris-Foulkes estimate   =    -428.31508865 Ry
     estimated scf accuracy    <       0.00000004 Ry

     The total energy is the sum of the following terms:

     one-electron contribution =      73.28468195 Ry
     hartree contribution      =      50.87484108 Ry
     xc contribution           =    -126.74651316 Ry
     ewald contribution        =    -425.72809850 Ry

     convergence has been achieved in   7 iterations

     Forces acting on atoms (cartesian axes, Ry/au):

     atom    1 type  1   force =     1.97104924    1.97104924    0.00000000
     atom    2 type  1   force =     0.28350479    0.28350479    0.00000000
     atom    3 type  2   force =     0.34912267   -0.02588177    0.00000000
     atom    4 type  2   force =    -0.02588177    0.34912267   -0.00000000
     atom    5 type  2   force =    -0.97911092   -0.97911092    0.00000000
     atom    6 type  2   force =    -1.59868401   -1.59868401    0.00000000

     Total force =     3.899337     Total SCF correction =     0.001241


     Computing stress (Cartesian axis) and pressure

          total   stress  (Ry/bohr**3)                   (kbar)     P=-2240.51
  -0.00761969   0.00368673  -0.00000000      -1120.89    542.34     -0.00
   0.00368673  -0.00761969   0.00000000        542.34  -1120.89      0.00
  -0.00000000   0.00000000  -0.03045274         -0.00      0.00  -4479.75


     number of scf cycles    =   8
     number of bfgs steps    =   6

     enthalpy old            =    -428.8499497318 Ry
     enthalpy new            =    -428.3150886306 Ry

     CASE: enthalpy_new > enthalpy_old

     new trust radius        =       0.0258568352 bohr
     new conv_thr            =       0.0000003333 Ry

     new unit-cell volume =    177.34397 a.u.^3 (    26.27966 Ang^3 )
     density =     19.04564 g/cm^3

CELL_PARAMETERS (alat=  9.11000000)
   0.692261829   0.000000000   0.000000000
   0.000000000   0.692261829   0.000000000
   0.000000000   0.000000000   0.489463730

ATOMIC_POSITIONS (crystal)
Sn       0.000644962   0.000644962   0.000000000
Sn       0.500806728   0.500806728   0.500000000
O        0.802874691   0.194306633   0.500000000
O        0.194306633   0.802874691   0.500000000
O        0.303389492   0.303389492   0.000000000
O        0.695977494   0.695977494   0.000000000



     Writing output data file SnO2.save
     Check: negative starting charge=   -0.000120
     NEW-OLD atomic charge density approx. for the potential

     Check: negative/imaginary core charge=   -0.002220    0.000000
     Check: negative starting charge=   -0.000939

     negative rho (up, down):  5.956E-03 0.000E+00
     extrapolated charge   50.21294, renormalised to   52.00000

     total cpu time spent up to now is      209.0 secs

     Self-consistent Calculation

     iteration #  1     ecut=    15.00 Ry     beta= 0.70
     Davidson diagonalization with overlap
     ethr =  1.00E-06,  avg # of iterations =  6.9

     negative rho (up, down):  5.006E-04 0.000E+00

     total cpu time spent up to now is      214.1 secs

     total energy              =    -428.76908528 Ry
     Harris-Foulkes estimate   =    -429.01180862 Ry
     estimated scf accuracy    <       0.17393537 Ry

     iteration #  2     ecut=    15.00 Ry     beta= 0.70
     Davidson diagonalization with overlap
     ethr =  3.34E-04,  avg # of iterations =  3.0

     negative rho (up, down):  5.094E-05 0.000E+00

     total cpu time spent up to now is      216.7 secs

     total energy              =    -428.85718527 Ry
     Harris-Foulkes estimate   =    -428.87873352 Ry
     estimated scf accuracy    <       0.04375965 Ry

     iteration #  3     ecut=    15.00 Ry     beta= 0.70
     Davidson diagonalization with overlap
     ethr =  8.42E-05,  avg # of iterations =  2.1

     total cpu time spent up to now is      218.8 secs

     total energy              =    -428.86192793 Ry
     Harris-Foulkes estimate   =    -428.86287535 Ry
     estimated scf accuracy    <       0.00266788 Ry

     iteration #  4     ecut=    15.00 Ry     beta= 0.70
     Davidson diagonalization with overlap
     ethr =  5.13E-06,  avg # of iterations =  2.3

     total cpu time spent up to now is      221.1 secs

     total energy              =    -428.86230520 Ry
     Harris-Foulkes estimate   =    -428.86261238 Ry
     estimated scf accuracy    <       0.00056475 Ry

     iteration #  5     ecut=    15.00 Ry     beta= 0.70
     Davidson diagonalization with overlap
     ethr =  1.09E-06,  avg # of iterations =  2.0

     total cpu time spent up to now is      223.4 secs

     total energy              =    -428.86243660 Ry
     Harris-Foulkes estimate   =    -428.86244574 Ry
     estimated scf accuracy    <       0.00002047 Ry

     iteration #  6     ecut=    15.00 Ry     beta= 0.70
     Davidson diagonalization with overlap
     ethr =  3.94E-08,  avg # of iterations =  2.0

     total cpu time spent up to now is      225.6 secs

     total energy              =    -428.86244007 Ry
     Harris-Foulkes estimate   =    -428.86244066 Ry
     estimated scf accuracy    <       0.00000158 Ry

     iteration #  7     ecut=    15.00 Ry     beta= 0.70
     Davidson diagonalization with overlap
     ethr =  3.03E-09,  avg # of iterations =  2.2

     total cpu time spent up to now is      227.9 secs

     End of self-consistent calculation

     Number of k-points >= 100: set verbosity='high' to print the bands.

     highest occupied level (ev):    43.7188

!    total energy              =    -428.86244035 Ry
     Harris-Foulkes estimate   =    -428.86244038 Ry
     estimated scf accuracy    <       0.00000005 Ry

     The total energy is the sum of the following terms:

     one-electron contribution =      80.32209185 Ry
     hartree contribution      =      49.82630937 Ry
     xc contribution           =    -127.36509983 Ry
     ewald contribution        =    -431.64574173 Ry

     convergence has been achieved in   7 iterations

     Forces acting on atoms (cartesian axes, Ry/au):

     atom    1 type  1   force =    -0.02686812   -0.02686812    0.00000000
     atom    2 type  1   force =    -0.00324869   -0.00324869    0.00000000
     atom    3 type  2   force =    -0.02291944   -0.02369317    0.00000000
     atom    4 type  2   force =    -0.02369317   -0.02291944    0.00000000
     atom    5 type  2   force =     0.07089886    0.07089886    0.00000000
     atom    6 type  2   force =     0.00583056    0.00583056    0.00000000

     Total force =     0.117301     Total SCF correction =     0.000798


     Computing stress (Cartesian axis) and pressure

          total   stress  (Ry/bohr**3)                   (kbar)     P= -497.95
  -0.00173005   0.00031687   0.00000000       -254.50     46.61      0.00
   0.00031687  -0.00173005   0.00000000         46.61   -254.50      0.00
   0.00000000   0.00000000  -0.00669484          0.00      0.00   -984.84


     number of scf cycles    =   9
     number of bfgs steps    =   6

     enthalpy old            =    -428.8499497318 Ry
     enthalpy new            =    -428.8624403470 Ry

     CASE: enthalpy_new < enthalpy_old

     new trust radius        =       0.0262240075 bohr
     new conv_thr            =       0.0000000709 Ry

     new unit-cell volume =    176.34497 a.u.^3 (    26.13163 Ang^3 )
     density =     19.15353 g/cm^3

CELL_PARAMETERS (alat=  9.11000000)
   0.693504673   0.000000000   0.000000000
   0.000000000   0.693504673   0.000000000
   0.000000000   0.000000000   0.484963635

ATOMIC_POSITIONS (crystal)
Sn       0.001611310   0.001611310   0.000000000
Sn       0.501138511   0.501138511   0.500000000
O        0.798799929   0.195135688   0.500000000
O        0.195135688   0.798799929   0.500000000
O        0.304001669   0.304001669   0.000000000
O        0.697312894   0.697312894   0.000000000



     Writing output data file SnO2.save
     Check: negative starting charge=   -0.000939
     NEW-OLD atomic charge density approx. for the potential

     Check: negative/imaginary core charge=   -0.002181    0.000000
     Check: negative starting charge=   -0.000883
     extrapolated charge   51.70544, renormalised to   52.00000

     total cpu time spent up to now is      229.1 secs

     Self-consistent Calculation

     iteration #  1     ecut=    15.00 Ry     beta= 0.70
     Davidson diagonalization with overlap
     ethr =  1.00E-06,  avg # of iterations =  5.0

     total cpu time spent up to now is      233.1 secs

     total energy              =    -428.86530783 Ry
     Harris-Foulkes estimate   =    -428.88762890 Ry
     estimated scf accuracy    <       0.00303588 Ry

     iteration #  2     ecut=    15.00 Ry     beta= 0.70
     Davidson diagonalization with overlap
     ethr =  5.84E-06,  avg # of iterations =  3.1

     total cpu time spent up to now is      235.7 secs

     total energy              =    -428.86751657 Ry
     Harris-Foulkes estimate   =    -428.86803597 Ry
     estimated scf accuracy    <       0.00110450 Ry

     iteration #  3     ecut=    15.00 Ry     beta= 0.70
     Davidson diagonalization with overlap
     ethr =  2.12E-06,  avg # of iterations =  2.1

     total cpu time spent up to now is      237.7 secs

     total energy              =    -428.86757961 Ry
     Harris-Foulkes estimate   =    -428.86762442 Ry
     estimated scf accuracy    <       0.00010152 Ry

     iteration #  4     ecut=    15.00 Ry     beta= 0.70
     Davidson diagonalization with overlap
     ethr =  1.95E-07,  avg # of iterations =  2.3

     total cpu time spent up to now is      240.0 secs

     total energy              =    -428.86759558 Ry
     Harris-Foulkes estimate   =    -428.86760049 Ry
     estimated scf accuracy    <       0.00000896 Ry

     iteration #  5     ecut=    15.00 Ry     beta= 0.70
     Davidson diagonalization with overlap
     ethr =  1.72E-08,  avg # of iterations =  2.6

     total cpu time spent up to now is      242.4 secs

     total energy              =    -428.86759772 Ry
     Harris-Foulkes estimate   =    -428.86759804 Ry
     estimated scf accuracy    <       0.00000066 Ry

     iteration #  6     ecut=    15.00 Ry     beta= 0.70
     Davidson diagonalization with overlap
     ethr =  1.28E-09,  avg # of iterations =  2.0

     total cpu time spent up to now is      244.5 secs

     End of self-consistent calculation

     Number of k-points >= 100: set verbosity='high' to print the bands.

     highest occupied level (ev):    43.9860

!    total energy              =    -428.86759778 Ry
     Harris-Foulkes estimate   =    -428.86759783 Ry
     estimated scf accuracy    <       0.00000007 Ry

     The total energy is the sum of the following terms:

     one-electron contribution =      80.85704852 Ry
     hartree contribution      =      49.93573374 Ry
     xc contribution           =    -127.49254433 Ry
     ewald contribution        =    -432.16783571 Ry

     convergence has been achieved in   6 iterations

     Forces acting on atoms (cartesian axes, Ry/au):

     atom    1 type  1   force =     0.01233956    0.01233956    0.00000000
     atom    2 type  1   force =     0.03927168    0.03927168    0.00000000
     atom    3 type  2   force =     0.01988014   -0.10426148    0.00000000
     atom    4 type  2   force =    -0.10426148    0.01988014    0.00000000
     atom    5 type  2   force =    -0.01281659   -0.01281659    0.00000000
     atom    6 type  2   force =     0.04558669    0.04558669    0.00000000

     Total force =     0.174371     Total SCF correction =     0.001059


     Computing stress (Cartesian axis) and pressure

          total   stress  (Ry/bohr**3)                   (kbar)     P=  -51.20
  -0.00034813  -0.00066932   0.00000000        -51.21    -98.46      0.00
  -0.00066932  -0.00034813   0.00000000        -98.46    -51.21      0.00
   0.00000000   0.00000000  -0.00034785          0.00      0.00    -51.17


     number of scf cycles    =  10
     number of bfgs steps    =   7

     enthalpy old            =    -428.8624403470 Ry
     enthalpy new            =    -428.8675977768 Ry

     CASE: enthalpy_new < enthalpy_old

     new trust radius        =       0.0574435788 bohr
     new conv_thr            =       0.0000000516 Ry

     new unit-cell volume =    174.59365 a.u.^3 (    25.87211 Ang^3 )
     density =     19.34566 g/cm^3

CELL_PARAMETERS (alat=  9.11000000)
   0.693860553   0.000000000   0.000000000
   0.000000000   0.693860553   0.000000000
   0.000000000   0.000000000   0.479654938

ATOMIC_POSITIONS (crystal)
Sn       0.004060076   0.004060076   0.000000000
Sn       0.505142586   0.505142586   0.500000000
O        0.794466787   0.187142329   0.500000000
O        0.187142329   0.794466787   0.500000000
O        0.303603975   0.303603975   0.000000000
O        0.703584247   0.703584247   0.000000000



     Writing output data file SnO2.save
     Check: negative starting charge=   -0.000883
     NEW-OLD atomic charge density approx. for the potential

     Check: negative/imaginary core charge=   -0.002106    0.000000
     Check: negative starting charge=   -0.000752
     extrapolated charge   51.47843, renormalised to   52.00000

     total cpu time spent up to now is      245.7 secs

     Self-consistent Calculation

     iteration #  1     ecut=    15.00 Ry     beta= 0.70
     Davidson diagonalization with overlap
     ethr =  1.00E-06,  avg # of iterations =  5.9

     total cpu time spent up to now is      250.0 secs

     total energy              =    -428.86610259 Ry
     Harris-Foulkes estimate   =    -428.90921149 Ry
     estimated scf accuracy    <       0.01503357 Ry

     iteration #  2     ecut=    15.00 Ry     beta= 0.70
     Davidson diagonalization with overlap
     ethr =  2.89E-05,  avg # of iterations =  3.0

     total cpu time spent up to now is      252.6 secs

     total energy              =    -428.87421435 Ry
     Harris-Foulkes estimate   =    -428.87642358 Ry
     estimated scf accuracy    <       0.00460535 Ry

     iteration #  3     ecut=    15.00 Ry     beta= 0.70
     Davidson diagonalization with overlap
     ethr =  8.86E-06,  avg # of iterations =  2.1

     total cpu time spent up to now is      254.7 secs

     total energy              =    -428.87471704 Ry
     Harris-Foulkes estimate   =    -428.87480807 Ry
     estimated scf accuracy    <       0.00031609 Ry

     iteration #  4     ecut=    15.00 Ry     beta= 0.70
     Davidson diagonalization with overlap
     ethr =  6.08E-07,  avg # of iterations =  2.4

     total cpu time spent up to now is      257.0 secs

     total energy              =    -428.87476290 Ry
     Harris-Foulkes estimate   =    -428.87479215 Ry
     estimated scf accuracy    <       0.00005308 Ry

     iteration #  5     ecut=    15.00 Ry     beta= 0.70
     Davidson diagonalization with overlap
     ethr =  1.02E-07,  avg # of iterations =  2.4

     total cpu time spent up to now is      259.3 secs

     total energy              =    -428.87477395 Ry
     Harris-Foulkes estimate   =    -428.87477571 Ry
     estimated scf accuracy    <       0.00000338 Ry

     iteration #  6     ecut=    15.00 Ry     beta= 0.70
     Davidson diagonalization with overlap
     ethr =  6.50E-09,  avg # of iterations =  2.1

     total cpu time spent up to now is      261.4 secs

     total energy              =    -428.87477429 Ry
     Harris-Foulkes estimate   =    -428.87477447 Ry
     estimated scf accuracy    <       0.00000035 Ry

     iteration #  7     ecut=    15.00 Ry     beta= 0.70
     Davidson diagonalization with overlap
     ethr =  6.71E-10,  avg # of iterations =  2.2

     total cpu time spent up to now is      263.7 secs

     End of self-consistent calculation

     Number of k-points >= 100: set verbosity='high' to print the bands.

     highest occupied level (ev):    44.4888

!    total energy              =    -428.87477435 Ry
     Harris-Foulkes estimate   =    -428.87477436 Ry
     estimated scf accuracy    <       0.00000001 Ry

     The total energy is the sum of the following terms:

     one-electron contribution =      82.19008670 Ry
     hartree contribution      =      49.96133082 Ry
     xc contribution           =    -127.69051547 Ry
     ewald contribution        =    -433.33567640 Ry

     convergence has been achieved in   7 iterations

     Forces acting on atoms (cartesian axes, Ry/au):

     atom    1 type  1   force =     0.20534554    0.20534554    0.00000000
     atom    2 type  1   force =     0.11124723    0.11124723    0.00000000
     atom    3 type  2   force =    -0.25325315   -0.00068339    0.00000000
     atom    4 type  2   force =    -0.00068339   -0.25325315    0.00000000
     atom    5 type  2   force =     0.05986080    0.05986080    0.00000000
     atom    6 type  2   force =    -0.12251702   -0.12251702    0.00000000

     Total force =     0.523973     Total SCF correction =     0.000679


     Computing stress (Cartesian axis) and pressure

          total   stress  (Ry/bohr**3)                   (kbar)     P=  671.01
   0.00216209   0.00224829  -0.00000000        318.05    330.74     -0.00
   0.00224829   0.00216209   0.00000000        330.74    318.05      0.00
   0.00000000   0.00000000   0.00936008          0.00      0.00   1376.91


     number of scf cycles    =  11
     number of bfgs steps    =   8

     enthalpy old            =    -428.8675977768 Ry
     enthalpy new            =    -428.8747743471 Ry

     CASE: enthalpy_new < enthalpy_old

     new trust radius        =       0.1264407247 bohr
     new conv_thr            =       0.0000000718 Ry

     new unit-cell volume =    171.72899 a.u.^3 (    25.44761 Ang^3 )
     density =     19.66837 g/cm^3

CELL_PARAMETERS (alat=  9.11000000)
   0.694008607   0.000000000   0.000000000
   0.000000000   0.694008607   0.000000000
   0.000000000   0.000000000   0.471583672

ATOMIC_POSITIONS (crystal)
Sn       0.010822040   0.010822040   0.000000000
Sn       0.514377480   0.514377480   0.500000000
O        0.782245023   0.171307215   0.500000000
O        0.171307215   0.782245023   0.500000000
O        0.306220206   0.306220206   0.000000000
O        0.713028037   0.713028037   0.000000000



     Writing output data file SnO2.save
     Check: negative starting charge=   -0.000752
     NEW-OLD atomic charge density approx. for the potential

     Check: negative/imaginary core charge=   -0.001998    0.000000
     Check: negative starting charge=   -0.000335

     negative rho (up, down):  4.964E-04 0.000E+00
     extrapolated charge   51.13262, renormalised to   52.00000

     total cpu time spent up to now is      264.9 secs

     Self-consistent Calculation

     iteration #  1     ecut=    15.00 Ry     beta= 0.70
     Davidson diagonalization with overlap
     ethr =  1.00E-06,  avg # of iterations =  6.7

     total cpu time spent up to now is      269.8 secs

     total energy              =    -428.90152842 Ry
     Harris-Foulkes estimate   =    -428.97745454 Ry
     estimated scf accuracy    <       0.05985901 Ry

     iteration #  2     ecut=    15.00 Ry     beta= 0.70
     Davidson diagonalization with overlap
     ethr =  1.15E-04,  avg # of iterations =  3.0

     total cpu time spent up to now is      272.4 secs

     total energy              =    -428.92773779 Ry
     Harris-Foulkes estimate   =    -428.93662712 Ry
     estimated scf accuracy    <       0.01793650 Ry

     iteration #  3     ecut=    15.00 Ry     beta= 0.70
     Davidson diagonalization with overlap
     ethr =  3.45E-05,  avg # of iterations =  2.1

     total cpu time spent up to now is      274.6 secs

     total energy              =    -428.93037175 Ry
     Harris-Foulkes estimate   =    -428.93060102 Ry
     estimated scf accuracy    <       0.00105947 Ry

     iteration #  4     ecut=    15.00 Ry     beta= 0.70
     Davidson diagonalization with overlap
     ethr =  2.04E-06,  avg # of iterations =  2.4

     total cpu time spent up to now is      277.0 secs

     total energy              =    -428.93053156 Ry
     Harris-Foulkes estimate   =    -428.93067801 Ry
     estimated scf accuracy    <       0.00027556 Ry

     iteration #  5     ecut=    15.00 Ry     beta= 0.70
     Davidson diagonalization with overlap
     ethr =  5.30E-07,  avg # of iterations =  2.1

     total cpu time spent up to now is      279.2 secs

     total energy              =    -428.93059016 Ry
     Harris-Foulkes estimate   =    -428.93059741 Ry
     estimated scf accuracy    <       0.00001374 Ry

     iteration #  6     ecut=    15.00 Ry     beta= 0.70
     Davidson diagonalization with overlap
     ethr =  2.64E-08,  avg # of iterations =  2.1

     total cpu time spent up to now is      281.3 secs

     total energy              =    -428.93059153 Ry
     Harris-Foulkes estimate   =    -428.93059207 Ry
     estimated scf accuracy    <       0.00000117 Ry

     iteration #  7     ecut=    15.00 Ry     beta= 0.70
     Davidson diagonalization with overlap
     ethr =  2.24E-09,  avg # of iterations =  2.3

     total cpu time spent up to now is      283.7 secs

     End of self-consistent calculation

     Number of k-points >= 100: set verbosity='high' to print the bands.

     highest occupied level (ev):    45.2515

!    total energy              =    -428.93059173 Ry
     Harris-Foulkes estimate   =    -428.93059176 Ry
     estimated scf accuracy    <       0.00000003 Ry

     The total energy is the sum of the following terms:

     one-electron contribution =      85.04877906 Ry
     hartree contribution      =      49.70260503 Ry
     xc contribution           =    -127.96950149 Ry
     ewald contribution        =    -435.71247434 Ry

     convergence has been achieved in   7 iterations

     Forces acting on atoms (cartesian axes, Ry/au):

     atom    1 type  1   force =     0.55593848    0.55593848    0.00000000
     atom    2 type  1   force =     0.21970490    0.21970490    0.00000000
     atom    3 type  2   force =    -0.69667336    0.02687513    0.00000000
     atom    4 type  2   force =     0.02687513   -0.69667336    0.00000000
     atom    5 type  2   force =     0.13091635    0.13091635    0.00000000
     atom    6 type  2   force =    -0.23676150   -0.23676150    0.00000000

     Total force =     1.353964     Total SCF correction =     0.000865


     Computing stress (Cartesian axis) and pressure

          total   stress  (Ry/bohr**3)                   (kbar)     P= 1747.58
   0.00567683   0.00743008   0.00000000        835.09   1093.00      0.00
   0.00743008   0.00567683   0.00000000       1093.00    835.09      0.00
   0.00000000   0.00000000   0.02428585          0.00      0.00   3572.57


     number of scf cycles    =  12
     number of bfgs steps    =   9

     enthalpy old            =    -428.8747743471 Ry
     enthalpy new            =    -428.9305917349 Ry

     CASE: enthalpy_new < enthalpy_old


     WARNING: bfgs curvature condition failed, Theta= 0.090
     new trust radius        =       0.1897015564 bohr
     new conv_thr            =       0.0000005582 Ry

     new unit-cell volume =    167.49267 a.u.^3 (    24.81985 Ang^3 )
     density =     20.16583 g/cm^3

CELL_PARAMETERS (alat=  9.11000000)
   0.694558057   0.000000000   0.000000000
   0.000000000   0.694558057   0.000000000
   0.000000000   0.000000000   0.459222940

ATOMIC_POSITIONS (crystal)
Sn       0.021331319   0.021331319   0.000000000
Sn       0.527531580   0.527531580   0.500000000
O        0.763605124   0.147794890   0.500000000
O        0.147794890   0.763605124   0.500000000
O        0.309925769   0.309925769   0.000000000
O        0.727811318   0.727811318   0.000000000



     Writing output data file SnO2.save
     Check: negative starting charge=   -0.000335
     NEW-OLD atomic charge density approx. for the potential

     Check: negative/imaginary core charge=   -0.001924    0.000000

     negative rho (up, down):  3.236E-03 0.000E+00
     extrapolated charge   50.68487, renormalised to   52.00000

     total cpu time spent up to now is      284.8 secs

     Self-consistent Calculation

     iteration #  1     ecut=    15.00 Ry     beta= 0.70
     Davidson diagonalization with overlap
     ethr =  1.00E-06,  avg # of iterations =  7.2

     negative rho (up, down):  2.894E-04 0.000E+00

     total cpu time spent up to now is      290.2 secs

     total energy              =    -429.02132276 Ry
     Harris-Foulkes estimate   =    -429.10988098 Ry
     estimated scf accuracy    <       0.12947320 Ry

     iteration #  2     ecut=    15.00 Ry     beta= 0.70
     Davidson diagonalization with overlap
     ethr =  2.49E-04,  avg # of iterations =  3.1

     total cpu time spent up to now is      292.7 secs

     total energy              =    -429.07922648 Ry
     Harris-Foulkes estimate   =    -429.10702147 Ry
     estimated scf accuracy    <       0.05408603 Ry

     iteration #  3     ecut=    15.00 Ry     beta= 0.70
     Davidson diagonalization with overlap
     ethr =  1.04E-04,  avg # of iterations =  2.2

     total cpu time spent up to now is      295.0 secs

     total energy              =    -429.08770422 Ry
     Harris-Foulkes estimate   =    -429.08879197 Ry
     estimated scf accuracy    <       0.00324594 Ry

     iteration #  4     ecut=    15.00 Ry     beta= 0.70
     Davidson diagonalization with overlap
     ethr =  6.24E-06,  avg # of iterations =  2.5

     total cpu time spent up to now is      297.4 secs

     total energy              =    -429.08828395 Ry
     Harris-Foulkes estimate   =    -429.08870007 Ry
     estimated scf accuracy    <       0.00086368 Ry

     iteration #  5     ecut=    15.00 Ry     beta= 0.70
     Davidson diagonalization with overlap
     ethr =  1.66E-06,  avg # of iterations =  2.1

     total cpu time spent up to now is      299.6 secs

     total energy              =    -429.08847640 Ry
     Harris-Foulkes estimate   =    -429.08849696 Ry
     estimated scf accuracy    <       0.00003995 Ry

     iteration #  6     ecut=    15.00 Ry     beta= 0.70
     Davidson diagonalization with overlap
     ethr =  7.68E-08,  avg # of iterations =  2.1

     total cpu time spent up to now is      301.6 secs

     total energy              =    -429.08848042 Ry
     Harris-Foulkes estimate   =    -429.08848168 Ry
     estimated scf accuracy    <       0.00000299 Ry

     iteration #  7     ecut=    15.00 Ry     beta= 0.70
     Davidson diagonalization with overlap
     ethr =  5.74E-09,  avg # of iterations =  2.6

     total cpu time spent up to now is      304.1 secs

     End of self-consistent calculation

     Number of k-points >= 100: set verbosity='high' to print the bands.

     highest occupied level (ev):    46.1016

!    total energy              =    -429.08848100 Ry
     Harris-Foulkes estimate   =    -429.08848102 Ry
     estimated scf accuracy    <       0.00000003 Ry

     The total energy is the sum of the following terms:

     one-electron contribution =      90.49903895 Ry
     hartree contribution      =      48.79150963 Ry
     xc contribution           =    -128.29824548 Ry
     ewald contribution        =    -440.08078409 Ry

     convergence has been achieved in   7 iterations

     Forces acting on atoms (cartesian axes, Ry/au):

     atom    1 type  1   force =     1.04543623    1.04543623    0.00000000
     atom    2 type  1   force =     0.21301886    0.21301886    0.00000000
     atom    3 type  2   force =    -1.28627142    0.13844157    0.00000000
     atom    4 type  2   force =     0.13844157   -1.28627142    0.00000000
     atom    5 type  2   force =     0.31495154    0.31495154    0.00000000
     atom    6 type  2   force =    -0.42557678   -0.42557678    0.00000000

     Total force =     2.486879     Total SCF correction =     0.000757


     Computing stress (Cartesian axis) and pressure

          total   stress  (Ry/bohr**3)                   (kbar)     P= 3158.53
   0.01026948   0.01956282   0.00000000       1510.69   2877.79      0.00
   0.01956282   0.01026948   0.00000000       2877.79   1510.69      0.00
   0.00000000   0.00000000   0.04387487          0.00      0.00   6454.21


     number of scf cycles    =  13
     number of bfgs steps    =  10

     enthalpy old            =    -428.9305917349 Ry
     enthalpy new            =    -429.0884809969 Ry

     CASE: enthalpy_new < enthalpy_old


     WARNING: bfgs curvature condition failed, Theta= 0.173
[...]
     ethr =  8.11E-10,  avg # of iterations =  2.9

     total cpu time spent up to now is      539.9 secs

     total energy              =    -430.54123594 Ry
     Harris-Foulkes estimate   =    -430.54123595 Ry
     estimated scf accuracy    <       0.00000004 Ry

     iteration #  4     ecut=    15.00 Ry     beta= 0.70
     Davidson diagonalization with overlap
     ethr =  7.78E-11,  avg # of iterations =  2.0

     total cpu time spent up to now is      541.6 secs

     total energy              =    -430.54123593 Ry
     Harris-Foulkes estimate   =    -430.54123594 Ry
     estimated scf accuracy    <       0.00000001 Ry

     iteration #  5     ecut=    15.00 Ry     beta= 0.70
     Davidson diagonalization with overlap
     ethr =  2.43E-11,  avg # of iterations =  2.6

     total cpu time spent up to now is      543.8 secs

     End of self-consistent calculation

     Number of k-points >= 100: set verbosity='high' to print the bands.

     highest occupied level (ev):    45.2688

!    total energy              =    -430.54123594 Ry
     Harris-Foulkes estimate   =    -430.54123594 Ry
     estimated scf accuracy    <          7.2E-10 Ry

     The total energy is the sum of the following terms:

     one-electron contribution =     107.61827322 Ry
     hartree contribution      =      40.86825323 Ry
     xc contribution           =    -127.40298631 Ry
     ewald contribution        =    -451.62477607 Ry

     convergence has been achieved in   5 iterations

     Forces acting on atoms (cartesian axes, Ry/au):

     atom    1 type  1   force =    -0.00065272   -0.00065272    0.00000000
     atom    2 type  1   force =    -0.00002714   -0.00002714    0.00000000
     atom    3 type  2   force =     0.00007275   -0.00000745    0.00000000
     atom    4 type  2   force =    -0.00000745    0.00007275    0.00000000
     atom    5 type  2   force =     0.00044739    0.00044739    0.00000000
     atom    6 type  2   force =     0.00016717    0.00016717    0.00000000

     Total force =     0.001149     Total SCF correction =     0.000066


     Computing stress (Cartesian axis) and pressure

          total   stress  (Ry/bohr**3)                   (kbar)     P=   -4.32
  -0.00002521   0.03490411   0.00000000         -3.71   5134.57      0.00
   0.03490411  -0.00002521   0.00000000       5134.57     -3.71      0.00
   0.00000000   0.00000000  -0.00003772          0.00      0.00     -5.55


     number of scf cycles    =  25
     number of bfgs steps    =  20

     enthalpy old            =    -430.5412361136 Ry
     enthalpy new            =    -430.5412359357 Ry

     CASE: enthalpy_new > enthalpy_old

     new trust radius        =       0.0000172299 bohr

     trust_radius < trust_radius_min

     resetting bfgs history

     Message from routine bfgs:
     history already reset at previous step: stopping
     new conv_thr            =       0.0000000100 Ry

     new unit-cell volume =    167.41913 a.u.^3 (    24.80895 Ang^3 )
     density =     20.17469 g/cm^3

CELL_PARAMETERS (alat=  9.11000000)
   0.683569156   0.000000000   0.000000000
   0.000000000   0.683569156   0.000000000
   0.000000000   0.000000000   0.473898163

ATOMIC_POSITIONS (crystal)
Sn       0.062554275   0.062554275   0.000000000
Sn       0.565376853   0.565376853   0.500000000
O        0.667273483   0.093314590   0.500000000
O        0.093314590   0.667273483   0.500000000
O        0.358243306   0.358243306   0.000000000
O        0.751237494   0.751237494   0.000000000



     Writing output data file SnO2.save
     NEW-OLD atomic charge density approx. for the potential

     Check: negative/imaginary core charge=   -0.001937    0.000000
     extrapolated charge   52.01363, renormalised to   52.00000

     total cpu time spent up to now is      545.0 secs

     Self-consistent Calculation

     iteration #  1     ecut=    15.00 Ry     beta= 0.70
     Davidson diagonalization with overlap
     ethr =  1.00E-06,  avg # of iterations =  1.8

     Threshold (ethr) on eigenvalues was too large:
     Diagonalizing with lowered threshold

     Davidson diagonalization with overlap
     ethr =  6.96E-09,  avg # of iterations =  3.2

     total cpu time spent up to now is      549.2 secs

     total energy              =    -430.54122518 Ry
     Harris-Foulkes estimate   =    -430.54503919 Ry
     estimated scf accuracy    <       0.00000474 Ry

     iteration #  2     ecut=    15.00 Ry     beta= 0.70
     Davidson diagonalization with overlap
     ethr =  9.12E-09,  avg # of iterations =  3.7

     total cpu time spent up to now is      552.2 secs

     total energy              =    -430.54122987 Ry
     Harris-Foulkes estimate   =    -430.54123266 Ry
     estimated scf accuracy    <       0.00000623 Ry

     iteration #  3     ecut=    15.00 Ry     beta= 0.70
     Davidson diagonalization with overlap
     ethr =  9.12E-09,  avg # of iterations =  2.8

     total cpu time spent up to now is      554.3 secs

     total energy              =    -430.54123043 Ry
     Harris-Foulkes estimate   =    -430.54123062 Ry
     estimated scf accuracy    <       0.00000052 Ry

     iteration #  4     ecut=    15.00 Ry     beta= 0.70
     Davidson diagonalization with overlap
     ethr =  9.99E-10,  avg # of iterations =  2.0

     total cpu time spent up to now is      556.1 secs

     total energy              =    -430.54123040 Ry
     Harris-Foulkes estimate   =    -430.54123048 Ry
     estimated scf accuracy    <       0.00000016 Ry

     iteration #  5     ecut=    15.00 Ry     beta= 0.70
     Davidson diagonalization with overlap
     ethr =  3.05E-10,  avg # of iterations =  2.8

     total cpu time spent up to now is      558.4 secs

     End of self-consistent calculation

     Number of k-points >= 100: set verbosity='high' to print the bands.

     highest occupied level (ev):    45.2572

!    total energy              =    -430.54123042 Ry
     Harris-Foulkes estimate   =    -430.54123043 Ry
     estimated scf accuracy    <          7.1E-09 Ry

     The total energy is the sum of the following terms:

     one-electron contribution =     107.57521027 Ry
     hartree contribution      =      40.87025314 Ry
     xc contribution           =    -127.39810478 Ry
     ewald contribution        =    -451.58858905 Ry

     convergence has been achieved in   5 iterations

     Forces acting on atoms (cartesian axes, Ry/au):

     atom    1 type  1   force =    -0.00385684   -0.00385684    0.00000000
     atom    2 type  1   force =    -0.00035498   -0.00035498    0.00000000
     atom    3 type  2   force =     0.00065525   -0.00009602    0.00000000
     atom    4 type  2   force =    -0.00009602    0.00065525    0.00000000
     atom    5 type  2   force =     0.00227866    0.00227866    0.00000000
     atom    6 type  2   force =     0.00137392    0.00137392    0.00000000

     Total force =     0.006711     Total SCF correction =     0.000316


     Computing stress (Cartesian axis) and pressure

          total   stress  (Ry/bohr**3)                   (kbar)     P=  -22.81
  -0.00013002   0.03488232   0.00000000        -19.13   5131.37      0.00
   0.03488232  -0.00013002   0.00000000       5131.37    -19.13      0.00
   0.00000000   0.00000000  -0.00020508          0.00      0.00    -30.17


     bfgs converged in  26 scf cycles and  20 bfgs steps
     (criteria: energy <  1.0E-03 Ry, force <  1.0E-02Ry/Bohr, cell <  5.0E-01kbar)

     End of BFGS Geometry Optimization

     Final enthalpy =    -430.5412304218 Ry
Begin final coordinates
     new unit-cell volume =    167.41913 a.u.^3 (    24.80895 Ang^3 )
     density =     20.17469 g/cm^3

CELL_PARAMETERS (alat=  9.11000000)
   0.683569156   0.000000000   0.000000000
   0.000000000   0.683569156   0.000000000
   0.000000000   0.000000000   0.473898163

ATOMIC_POSITIONS (crystal)
Sn       0.062554275   0.062554275   0.000000000
Sn       0.565376853   0.565376853   0.500000000
O        0.667273483   0.093314590   0.500000000
O        0.093314590   0.667273483   0.500000000
O        0.358243306   0.358243306   0.000000000
O        0.751237494   0.751237494   0.000000000
End final coordinates



     A final scf calculation at the relaxed structure.
     The G-vectors are recalculated for the final unit cell
     Results may differ from those at the preceding step.
 
     Parallelization info
     --------------------
     sticks:   dense  smooth     PW     G-vecs:    dense   smooth      PW
     Min          92      92     34                  661      661     160
     Max          93      93     35                  662      662     163
     Sum         185     185     69                 1323     1323     323
 


     bravais-lattice index     =            6
     lattice parameter (alat)  =       9.1100  a.u.
     unit-cell volume          =     167.4191 (a.u.)^3
     number of atoms/cell      =            6
     number of atomic types    =            2
     number of electrons       =        52.00
     number of Kohn-Sham states=           26
     kinetic-energy cutoff     =      15.0000  Ry
     charge density cutoff     =      60.0000  Ry
     convergence threshold     =      1.0E-08
     mixing beta               =       0.7000
     number of iterations used =            8  plain     mixing
     Exchange-correlation      = PBE ( 1  4  3  4 0 0)

     celldm(1)=   9.110000  celldm(2)=   0.000000  celldm(3)=   0.670000
     celldm(4)=   0.000000  celldm(5)=   0.000000  celldm(6)=   0.000000

     crystal axes: (cart. coord. in units of alat)
               a(1) = (   0.683569   0.000000   0.000000 )  
               a(2) = (   0.000000   0.683569   0.000000 )  
               a(3) = (   0.000000   0.000000   0.473898 )  

     reciprocal axes: (cart. coord. in units 2 pi/alat)
               b(1) = (  1.462910  0.000000  0.000000 )  
               b(2) = (  0.000000  1.462910  0.000000 )  
               b(3) = (  0.000000  0.000000  2.110158 )  


     PseudoPot. # 1 for Sn read from file:
     ../Pseudo_potentials/Sn_PBE.upf
     MD5 check sum: 78e6386ae56e929f0568ae8bf606a80c
     Pseudo is Norm-conserving + core correction, Zval = 14.0
     Generated using ONCVPSP code by D. R. Hamann
     Using radial grid of 1628 points,  6 beta functions with: 
                l(1) =   0
                l(2) =   0
                l(3) =   1
                l(4) =   1
                l(5) =   2
                l(6) =   2

     PseudoPot. # 2 for O  read from file:
     ../Pseudo_potentials/O_PBE.upf
     MD5 check sum: 3e3f909f7470e8921608ab6b1f57bbae
     Pseudo is Norm-conserving + core correction, Zval =  6.0
     Generated using ONCVPSP code by D. R. Hamann
     Using radial grid of  936 points,  5 beta functions with: 
                l(1) =   0
                l(2) =   0
                l(3) =   1
                l(4) =   1
                l(5) =   2

     atomic species   valence    mass     pseudopotential
        Sn            14.00   118.71000     Sn( 1.00)
        O              6.00    15.99900     O ( 1.00)

      4 Sym. Ops. (no inversion) found



   Cartesian axes

     site n.     atom                  positions (alat units)
         1           Sn  tau(   1) = (   0.0427602   0.0427602   0.0000000  )
         2           Sn  tau(   2) = (   0.3864742   0.3864742   0.2369491  )
         3           O   tau(   3) = (   0.4561276   0.0637870   0.2369491  )
         4           O   tau(   4) = (   0.0637870   0.4561276   0.2369491  )
         5           O   tau(   5) = (   0.2448841   0.2448841   0.0000000  )
         6           O   tau(   6) = (   0.5135228   0.5135228   0.0000000  )

     number of k points=   105

     Number of k-points >= 100: set verbosity='high' to print them.

     Dense  grid:     1323 G-vectors     FFT dimensions: (  15,  15,  12)

     Estimated max dynamical RAM per process >       8.38 MB

     Estimated total dynamical RAM >      16.76 MB

     Check: negative/imaginary core charge=   -0.009828    0.000000

     Initial potential from superposition of free atoms
     Check: negative starting charge=   -0.029957

     starting charge   51.99690, renormalised to   52.00000

     negative rho (up, down):  2.996E-02 0.000E+00
     Starting wfc are   34 randomized atomic wfcs

     Writing output data file SnO2.save

     total cpu time spent up to now is      559.8 secs

     Self-consistent Calculation

     iteration #  1     ecut=    15.00 Ry     beta= 0.70
     Davidson diagonalization with overlap
     ethr =  1.00E-06,  avg # of iterations = 11.1

     negative rho (up, down):  8.860E-03 0.000E+00

     total cpu time spent up to now is      563.6 secs

     total energy              =    -383.91644395 Ry
     Harris-Foulkes estimate   =    -399.24148115 Ry
     estimated scf accuracy    <      19.83379907 Ry

     iteration #  2     ecut=    15.00 Ry     beta= 0.70
     Davidson diagonalization with overlap
     ethr =  1.00E-02,  avg # of iterations =  3.2

     negative rho (up, down):  1.954E-03 0.000E+00

     total cpu time spent up to now is      565.0 secs

     total energy              =    -386.96283751 Ry
     Harris-Foulkes estimate   =    -387.61796387 Ry
     estimated scf accuracy    <       1.19291194 Ry

     iteration #  3     ecut=    15.00 Ry     beta= 0.70
     Davidson diagonalization with overlap
     ethr =  2.29E-03,  avg # of iterations =  2.6

     total cpu time spent up to now is      566.0 secs

     total energy              =    -387.11018924 Ry
     Harris-Foulkes estimate   =    -387.17375704 Ry
     estimated scf accuracy    <       0.11716472 Ry

     iteration #  4     ecut=    15.00 Ry     beta= 0.70
     Davidson diagonalization with overlap
     ethr =  2.25E-04,  avg # of iterations =  2.6

     total cpu time spent up to now is      567.0 secs

     total energy              =    -387.12892613 Ry
     Harris-Foulkes estimate   =    -387.13284769 Ry
     estimated scf accuracy    <       0.00741664 Ry

     iteration #  5     ecut=    15.00 Ry     beta= 0.70
     Davidson diagonalization with overlap
     ethr =  1.43E-05,  avg # of iterations =  2.9

     total cpu time spent up to now is      568.2 secs

     total energy              =    -387.13024921 Ry
     Harris-Foulkes estimate   =    -387.13098816 Ry
     estimated scf accuracy    <       0.00119329 Ry

     iteration #  6     ecut=    15.00 Ry     beta= 0.70
     Davidson diagonalization with overlap
     ethr =  2.29E-06,  avg # of iterations =  2.9

     total cpu time spent up to now is      569.4 secs

     total energy              =    -387.13058791 Ry
     Harris-Foulkes estimate   =    -387.13069572 Ry
     estimated scf accuracy    <       0.00021051 Ry

     iteration #  7     ecut=    15.00 Ry     beta= 0.70
     Davidson diagonalization with overlap
     ethr =  4.05E-07,  avg # of iterations =  2.3

     total cpu time spent up to now is      570.4 secs

     total energy              =    -387.13063485 Ry
     Harris-Foulkes estimate   =    -387.13063989 Ry
     estimated scf accuracy    <       0.00000950 Ry

     iteration #  8     ecut=    15.00 Ry     beta= 0.70
     Davidson diagonalization with overlap
     ethr =  1.83E-08,  avg # of iterations =  2.9

     total cpu time spent up to now is      571.6 secs

     total energy              =    -387.13063729 Ry
     Harris-Foulkes estimate   =    -387.13063759 Ry
     estimated scf accuracy    <       0.00000061 Ry

     iteration #  9     ecut=    15.00 Ry     beta= 0.70
     Davidson diagonalization with overlap
     ethr =  1.18E-09,  avg # of iterations =  3.0

     total cpu time spent up to now is      572.8 secs

     total energy              =    -387.13063744 Ry
     Harris-Foulkes estimate   =    -387.13063745 Ry
     estimated scf accuracy    <       0.00000003 Ry

     iteration # 10     ecut=    15.00 Ry     beta= 0.70
     Davidson diagonalization with overlap
     ethr =  6.02E-11,  avg # of iterations =  2.6

     total cpu time spent up to now is      573.9 secs

     End of self-consistent calculation

     Number of k-points >= 100: set verbosity='high' to print the bands.

     highest occupied level (ev):    54.2124

!    total energy              =    -387.13063744 Ry
     Harris-Foulkes estimate   =    -387.13063744 Ry
     estimated scf accuracy    <          4.8E-10 Ry

     The total energy is the sum of the following terms:

     one-electron contribution =     161.67769513 Ry
     hartree contribution      =      20.75840207 Ry
     xc contribution           =    -117.97814559 Ry
     ewald contribution        =    -451.58858906 Ry

     convergence has been achieved in  10 iterations

     Forces acting on atoms (cartesian axes, Ry/au):

     atom    1 type  1   force =     0.45530666    0.45530666    0.00000000
     atom    2 type  1   force =    -0.05241180   -0.05241180    0.00000000
     atom    3 type  2   force =    -0.37960826    0.14092178    0.00000000
     atom    4 type  2   force =     0.14092178   -0.37960826    0.00000000
     atom    5 type  2   force =    -0.11715146   -0.11715146    0.00000000
     atom    6 type  2   force =    -0.04705693   -0.04705693    0.00000000

     Total force =     0.883121     Total SCF correction =     0.000109


     Computing stress (Cartesian axis) and pressure

          total   stress  (Ry/bohr**3)                   (kbar)     P=********
  -0.12079524   0.05353600   0.00000000     -17769.59   7875.42      0.00
   0.05353600  -0.12079524   0.00000000       7875.42 -17769.59      0.00
   0.00000000   0.00000000  -0.09914097          0.00      0.00 -14584.14


     Writing output data file SnO2.save
 
     init_run     :      1.19s CPU      1.22s WALL (       2 calls)
     electrons    :    527.55s CPU    542.23s WALL (      27 calls)
     update_pot   :      3.50s CPU      3.52s WALL (      25 calls)
     forces       :      7.02s CPU      7.08s WALL (      27 calls)
     stress       :     17.81s CPU     17.90s WALL (      27 calls)

     Called by init_run:
     wfcinit      :      1.01s CPU      1.04s WALL (       2 calls)
     potinit      :      0.05s CPU      0.05s WALL (       2 calls)
     hinit0       :      0.13s CPU      0.13s WALL (       2 calls)

     Called by electrons:
     c_bands      :    487.27s CPU    500.47s WALL (     202 calls)
     sum_band     :     39.75s CPU     40.68s WALL (     202 calls)
     v_of_rho     :      0.49s CPU      0.50s WALL (     226 calls)
     mix_rho      :      0.06s CPU      0.06s WALL (     202 calls)

     Called by c_bands:
     init_us_2    :      1.66s CPU      6.66s WALL (   48300 calls)
     cegterg      :    460.57s CPU    466.69s WALL (   21210 calls)

     Called by sum_band:

     Called by *egterg:
     h_psi        :    276.84s CPU    284.54s WALL (   93462 calls)
     g_psi        :      0.89s CPU      3.50s WALL (   72042 calls)
     cdiaghg      :    131.47s CPU    130.02s WALL (   90312 calls)

     Called by h_psi:
     h_psi:pot    :    276.51s CPU    283.36s WALL (   93462 calls)
     h_psi:calbec :     21.43s CPU     19.34s WALL (   93462 calls)
     vloc_psi     :    252.41s CPU    244.86s WALL (   93462 calls)
     add_vuspsi   :      2.65s CPU     18.93s WALL (   93462 calls)

     General routines
     calbec       :     27.82s CPU     22.96s WALL (  107637 calls)
     fft          :      0.51s CPU      0.28s WALL (    2963 calls)
     ffts         :      0.03s CPU      0.02s WALL (     202 calls)
     fftw         :    289.91s CPU    261.55s WALL ( 4149314 calls)
 
     Parallel routines
     fft_scatt_xy :      1.56s CPU     20.90s WALL ( 4152479 calls)
     fft_scatt_yz :    272.91s CPU     41.75s WALL ( 4152479 calls)
 
     PWSCF        :  9m18.15s CPU     9m34.68s WALL

 
   This run was terminated on:  22:37:23   3Apr2018            

=------------------------------------------------------------------------------=
   JOB DONE.
=------------------------------------------------------------------------------=
