
     Program PHONON v.6.2.2 starts on  8May2018 at 15: 7:40 

     This program is part of the open-source Quantum ESPRESSO suite
     for quantum simulation of materials; please cite
         "P. Giannozzi et al., J. Phys.:Condens. Matter 21 395502 (2009);
         "P. Giannozzi et al., J. Phys.:Condens. Matter 29 465901 (2017);
          URL http://www.quantum-espresso.org", 
     in publications or presentations arising from this work. More details at
     http://www.quantum-espresso.org/quote

     Parallel version (MPI), running on    32 processors

     MPI processes distributed on     5 nodes
     R & G space division:  proc/nbgrp/npool/nimage =      32

     Reading data from directory:
     ./epw.save/

     IMPORTANT: XC functional enforced from input :
     Exchange-correlation      = PBE ( 1  4  3  4 0 0)
     Any further DFT definition will be discarded
     Please, verify this is what you really want

 
     Parallelization info
     --------------------
     sticks:   dense  smooth     PW     G-vecs:    dense   smooth      PW
     Min          62      62     18                 1404     1404     223
     Max          63      63     20                 1405     1405     225
     Sum        2001    2001    593                44945    44945    7155
 

     Check: negative/imaginary core charge=   -0.000002    0.000000


     Dynamical matrices for ( 3, 3, 3)  uniform grid of q-points
     (   8 q-points):
       N         xq(1)         xq(2)         xq(3) 
       1   0.000000000   0.000000000   0.000000000
       2   0.000000000   0.000000000   0.496328851
       3   0.000000000   0.333333333   0.000000000
       4   0.000000000   0.333333333   0.496328851
       5   0.333333333   0.333333333   0.000000000
       6   0.333333333   0.333333333   0.496328851
       7   0.333333333  -0.333333333   0.000000000
       8   0.333333333  -0.333333333   0.496328851

     Calculation of q =    0.0000000   0.0000000   0.0000000

     Phonon dispersions for SnO2                                                

     bravais-lattice index     =            6
     lattice parameter (alat)  =       9.1370  a.u.
     unit-cell volume          =     512.3005 (a.u.)^3
     number of atoms/cell      =            6
     number of atomic types    =            2
     kinetic-energy cut-off    =      75.0000  Ry
     charge density cut-off    =     300.0000  Ry
     convergence threshold     =      1.0E-14
     beta                      =       0.7000
     number of iterations used =            4
     Exchange-correlation      = PBE ( 1  4  3  4 0 0)


     celldm(1)=    9.13703  celldm(2)=    1.00000  celldm(3)=    0.67160
     celldm(4)=    0.00000  celldm(5)=    0.00000  celldm(6)=    0.00000

     crystal axes: (cart. coord. in units of alat)
               a(1) = (  1.0000  0.0000  0.0000 )  
               a(2) = (  0.0000  1.0000  0.0000 )  
               a(3) = (  0.0000  0.0000  0.6716 )  

     reciprocal axes: (cart. coord. in units 2 pi/alat)
               b(1) = (  1.0000  0.0000  0.0000 )  
               b(2) = (  0.0000  1.0000  0.0000 )  
               b(3) = (  0.0000  0.0000  1.4890 )  


     Atoms inside the unit cell: 

     Cartesian axes

     site n.  atom      mass           positions (alat units)
        1     Sn 118.7100   tau(    1) = (   -0.00033   -0.00033    0.00000  )
        2     Sn 118.7100   tau(    2) = (    0.49967    0.49967    0.33580  )
        3     O   15.9990   tau(    3) = (    0.80637    0.19296    0.33580  )
        4     O   15.9990   tau(    4) = (    0.19296    0.80637    0.33580  )
        5     O   15.9990   tau(    5) = (    0.30637    0.30637    0.00000  )
        6     O   15.9990   tau(    6) = (    0.69296    0.69296    0.00000  )

     Computing dynamical matrix for 
                    q = (   0.0000000   0.0000000   0.0000000 )
 
      5 Sym.Ops. (with q -> -q+G )


     G cutoff =  634.4127  (   1405 G-vectors)     FFT grid: ( 54, 54, 36)
     number of k points=   301

     PseudoPot. # 1 for Sn read from file:
     ../../Pseudo_potentials/Sn_PBE.upf
     MD5 check sum: 78e6386ae56e929f0568ae8bf606a80c
     Pseudo is Norm-conserving + core correction, Zval = 14.0
     Generated using ONCVPSP code by D. R. Hamann
     Using radial grid of 1628 points,  6 beta functions with: 
                l(1) =   0
                l(2) =   0
                l(3) =   1
                l(4) =   1
                l(5) =   2
                l(6) =   2

     PseudoPot. # 2 for O  read from file:
     ../../Pseudo_potentials/O_PBE.upf
     MD5 check sum: 3e3f909f7470e8921608ab6b1f57bbae
     Pseudo is Norm-conserving + core correction, Zval =  6.0
     Generated using ONCVPSP code by D. R. Hamann
     Using radial grid of  936 points,  5 beta functions with: 
                l(1) =   0
                l(2) =   0
                l(3) =   1
                l(4) =   1
                l(5) =   2

     Mode symmetry, C_2v (mm2)  point group:


     Electric field:
     Dielectric constant
     Born effective charges in two ways 


     Atomic displacements:
     There are  18 irreducible representations

     Representation     1      1 modes -A_1  D_1  S_1  To be done

     Representation     2      1 modes -A_1  D_1  S_1  To be done

     Representation     3      1 modes -A_1  D_1  S_1  To be done

     Representation     4      1 modes -A_1  D_1  S_1  To be done

     Representation     5      1 modes -A_1  D_1  S_1  To be done

     Representation     6      1 modes -A_1  D_1  S_1  To be done

     Representation     7      1 modes -A_2  D_2  S_2  To be done

     Representation     8      1 modes -B_1  D_3  S_3  To be done

     Representation     9      1 modes -B_1  D_3  S_3  To be done

     Representation    10      1 modes -B_1  D_3  S_3  To be done

     Representation    11      1 modes -B_1  D_3  S_3  To be done

     Representation    12      1 modes -B_1  D_3  S_3  To be done

     Representation    13      1 modes -B_1  D_3  S_3  To be done

     Representation    14      1 modes -B_2  D_4  S_4  To be done

     Representation    15      1 modes -B_2  D_4  S_4  To be done

     Representation    16      1 modes -B_2  D_4  S_4  To be done

     Representation    17      1 modes -B_2  D_4  S_4  To be done

     Representation    18      1 modes -B_2  D_4  S_4  To be done



     Alpha used in Ewald sum =   2.7000
     PHONON       :  0m45.45s CPU     1m26.28s WALL


     Electric Fields Calculation

      iter #   1 total cpu time :  4073.4 secs   av.it.:   7.6
      thresh= 1.000E-02 alpha_mix =  0.700 |ddv_scf|^2 =  1.564E-08

      iter #   2 total cpu time :  5884.8 secs   av.it.:  15.2
      thresh= 1.251E-05 alpha_mix =  0.700 |ddv_scf|^2 =  2.437E-08

      iter #   3 total cpu time :  7447.1 secs   av.it.:  13.4
      thresh= 1.561E-05 alpha_mix =  0.700 |ddv_scf|^2 =  1.299E-09

      iter #   4 total cpu time :  9019.0 secs   av.it.:  14.5
      thresh= 3.604E-06 alpha_mix =  0.700 |ddv_scf|^2 =  5.529E-11

      iter #   5 total cpu time : 10612.5 secs   av.it.:  14.7
      thresh= 7.436E-07 alpha_mix =  0.700 |ddv_scf|^2 =  5.514E-12

      iter #   6 total cpu time : 12124.4 secs   av.it.:  14.3
      thresh= 2.348E-07 alpha_mix =  0.700 |ddv_scf|^2 =  5.166E-14

      iter #   7 total cpu time : 13753.1 secs   av.it.:  15.7
      thresh= 2.273E-08 alpha_mix =  0.700 |ddv_scf|^2 =  1.654E-14

      iter #   8 total cpu time : 15299.8 secs   av.it.:  14.8
      thresh= 1.286E-08 alpha_mix =  0.700 |ddv_scf|^2 =  1.568E-16

     End of electric fields calculation

          Dielectric constant in cartesian axis 

          (       4.847204618       0.000000005       0.000000000 )
          (       0.000000005       4.847204618       0.000000000 )
          (       0.000000000       0.000000000       5.106774546 )

          Effective charges (d Force / dE) in cartesian axis

           atom      1   Sn 
      Ex  (        4.18470        0.56161        0.00000 )
      Ey  (        0.56161        4.18470        0.00000 )
      Ez  (        0.00000        0.00000        4.59630 )
           atom      2   Sn 
      Ex  (        4.18470       -0.56161        0.00000 )
      Ey  (       -0.56161        4.18470        0.00000 )
      Ez  (        0.00000        0.00000        4.59630 )
           atom      3   O  
      Ex  (       -2.09235        0.79922        0.00000 )
      Ey  (        0.79921       -2.09231        0.00000 )
      Ez  (        0.00000        0.00000       -2.29820 )
           atom      4   O  
      Ex  (       -2.09231        0.79921        0.00000 )
      Ey  (        0.79922       -2.09235        0.00000 )
      Ez  (        0.00000        0.00000       -2.29820 )
           atom      5   O  
      Ex  (       -2.09232       -0.79921        0.00000 )
      Ey  (       -0.79921       -2.09232        0.00000 )
      Ez  (        0.00000        0.00000       -2.29820 )
           atom      6   O  
      Ex  (       -2.09234       -0.79922        0.00000 )
      Ey  (       -0.79922       -2.09234        0.00000 )
      Ez  (        0.00000        0.00000       -2.29820 )


     Representation #  1 mode #   1

     Self-consistent Calculation

      iter #   1 total cpu time : 16412.6 secs   av.it.:   6.9
      thresh= 1.000E-02 alpha_mix =  0.700 |ddv_scf|^2 =  8.752E-07

      iter #   2 total cpu time : 16914.9 secs   av.it.:  13.9
      thresh= 9.355E-05 alpha_mix =  0.700 |ddv_scf|^2 =  2.271E-07

      iter #   3 total cpu time : 17404.9 secs   av.it.:  13.8
      thresh= 4.766E-05 alpha_mix =  0.700 |ddv_scf|^2 =  7.653E-08

      iter #   4 total cpu time : 17869.8 secs   av.it.:  12.9
      thresh= 2.766E-05 alpha_mix =  0.700 |ddv_scf|^2 =  3.208E-09

      iter #   5 total cpu time : 18409.6 secs   av.it.:  13.7
      thresh= 5.664E-06 alpha_mix =  0.700 |ddv_scf|^2 =  2.363E-11

      iter #   6 total cpu time : 19117.4 secs   av.it.:  14.3
      thresh= 4.861E-07 alpha_mix =  0.700 |ddv_scf|^2 =  1.136E-11

      iter #   7 total cpu time : 19763.1 secs   av.it.:  13.8
      thresh= 3.370E-07 alpha_mix =  0.700 |ddv_scf|^2 =  5.069E-12

      iter #   8 total cpu time : 20626.5 secs   av.it.:  13.1
      thresh= 2.252E-07 alpha_mix =  0.700 |ddv_scf|^2 =  2.217E-13

      iter #   9 total cpu time : 21359.8 secs   av.it.:  13.7
      thresh= 4.708E-08 alpha_mix =  0.700 |ddv_scf|^2 =  7.868E-15

     End of self-consistent calculation

     Convergence has been achieved 


     Representation #  2 mode #   2

     Self-consistent Calculation

      iter #   1 total cpu time : 21833.2 secs   av.it.:   7.3
      thresh= 1.000E-02 alpha_mix =  0.700 |ddv_scf|^2 =  2.983E-06

      iter #   2 total cpu time : 22583.8 secs   av.it.:  13.4
      thresh= 1.727E-04 alpha_mix =  0.700 |ddv_scf|^2 =  1.798E-06

      iter #   3 total cpu time : 23228.5 secs   av.it.:  12.5
      thresh= 1.341E-04 alpha_mix =  0.700 |ddv_scf|^2 =  4.611E-08

      iter #   4 total cpu time : 23993.8 secs   av.it.:  13.2
      thresh= 2.147E-05 alpha_mix =  0.700 |ddv_scf|^2 =  1.742E-08

      iter #   5 total cpu time : 24773.7 secs   av.it.:  12.7
      thresh= 1.320E-05 alpha_mix =  0.700 |ddv_scf|^2 =  2.639E-11

      iter #   6 total cpu time : 33816.5 secs   av.it.:  14.0
      thresh= 5.137E-07 alpha_mix =  0.700 |ddv_scf|^2 =  4.085E-12

      iter #   7 total cpu time : 41504.9 secs   av.it.:  14.2
      thresh= 2.021E-07 alpha_mix =  0.700 |ddv_scf|^2 =  4.856E-12

      iter #   8 total cpu time : 42354.0 secs   av.it.:  13.1
      thresh= 2.204E-07 alpha_mix =  0.700 |ddv_scf|^2 =  6.559E-14

      iter #   9 total cpu time : 43128.7 secs   av.it.:  14.2
      thresh= 2.561E-08 alpha_mix =  0.700 |ddv_scf|^2 =  1.095E-14

      iter #  10 total cpu time : 44014.5 secs   av.it.:  13.9
      thresh= 1.046E-08 alpha_mix =  0.700 |ddv_scf|^2 =  6.514E-16

     End of self-consistent calculation

     Convergence has been achieved 


     Representation #  3 mode #   3

     Self-consistent Calculation

      iter #   1 total cpu time : 44509.7 secs   av.it.:   8.5
      thresh= 1.000E-02 alpha_mix =  0.700 |ddv_scf|^2 =  7.640E-06

      iter #   2 total cpu time : 45201.3 secs   av.it.:  14.0
      thresh= 2.764E-04 alpha_mix =  0.700 |ddv_scf|^2 =  7.459E-06

      iter #   3 total cpu time : 46152.0 secs   av.it.:  13.2
      thresh= 2.731E-04 alpha_mix =  0.700 |ddv_scf|^2 =  5.533E-07

      iter #   4 total cpu time : 46885.9 secs   av.it.:  13.0
      thresh= 7.439E-05 alpha_mix =  0.700 |ddv_scf|^2 =  7.528E-10

      iter #   5 total cpu time : 47635.8 secs   av.it.:  13.8
      thresh= 2.744E-06 alpha_mix =  0.700 |ddv_scf|^2 =  1.689E-11

      iter #   6 total cpu time : 48640.3 secs   av.it.:  13.7
      thresh= 4.110E-07 alpha_mix =  0.700 |ddv_scf|^2 =  5.501E-12

      iter #   7 total cpu time : 49151.7 secs   av.it.:  13.6
      thresh= 2.345E-07 alpha_mix =  0.700 |ddv_scf|^2 =  1.006E-13

      iter #   8 total cpu time : 49661.0 secs   av.it.:  14.1
      thresh= 3.172E-08 alpha_mix =  0.700 |ddv_scf|^2 =  3.568E-15

     End of self-consistent calculation

     Convergence has been achieved 


     Representation #  4 mode #   4

     Self-consistent Calculation

      iter #   1 total cpu time : 49955.3 secs   av.it.:   7.6
      thresh= 1.000E-02 alpha_mix =  0.700 |ddv_scf|^2 =  1.947E-06

      iter #   2 total cpu time : 50419.2 secs   av.it.:  14.0
      thresh= 1.396E-04 alpha_mix =  0.700 |ddv_scf|^2 =  1.085E-06

      iter #   3 total cpu time : 51417.8 secs   av.it.:  13.3
      thresh= 1.042E-04 alpha_mix =  0.700 |ddv_scf|^2 =  5.393E-08

      iter #   4 total cpu time : 51862.8 secs   av.it.:  13.6
      thresh= 2.322E-05 alpha_mix =  0.700 |ddv_scf|^2 =  1.230E-08

      iter #   5 total cpu time : 52321.1 secs   av.it.:  13.1
      thresh= 1.109E-05 alpha_mix =  0.700 |ddv_scf|^2 =  1.289E-10

      iter #   6 total cpu time : 52797.8 secs   av.it.:  14.2
      thresh= 1.135E-06 alpha_mix =  0.700 |ddv_scf|^2 =  8.987E-11

      iter #   7 total cpu time : 53238.9 secs   av.it.:  13.2
      thresh= 9.480E-07 alpha_mix =  0.700 |ddv_scf|^2 =  2.575E-12

      iter #   8 total cpu time : 53707.1 secs   av.it.:  14.2
      thresh= 1.605E-07 alpha_mix =  0.700 |ddv_scf|^2 =  3.400E-13

      iter #   9 total cpu time : 54182.8 secs   av.it.:  14.4
      thresh= 5.831E-08 alpha_mix =  0.700 |ddv_scf|^2 =  4.551E-14

      iter #  10 total cpu time : 54628.6 secs   av.it.:  13.8
      thresh= 2.133E-08 alpha_mix =  0.700 |ddv_scf|^2 =  2.311E-15

     End of self-consistent calculation

     Convergence has been achieved 


     Representation #  5 mode #   5

     Self-consistent Calculation

      iter #   1 total cpu time : 54948.5 secs   av.it.:   8.3
      thresh= 1.000E-02 alpha_mix =  0.700 |ddv_scf|^2 =  6.517E-06

      iter #   2 total cpu time : 55420.3 secs   av.it.:  13.9
      thresh= 2.553E-04 alpha_mix =  0.700 |ddv_scf|^2 =  5.603E-06

      iter #   3 total cpu time : 55854.4 secs   av.it.:  13.1
      thresh= 2.367E-04 alpha_mix =  0.700 |ddv_scf|^2 =  5.726E-07

      iter #   4 total cpu time : 56290.8 secs   av.it.:  13.0
      thresh= 7.567E-05 alpha_mix =  0.700 |ddv_scf|^2 =  7.608E-10

      iter #   5 total cpu time : 56747.6 secs   av.it.:  13.8
      thresh= 2.758E-06 alpha_mix =  0.700 |ddv_scf|^2 =  6.082E-11

      iter #   6 total cpu time : 57180.0 secs   av.it.:  13.3
      thresh= 7.799E-07 alpha_mix =  0.700 |ddv_scf|^2 =  2.366E-11

      iter #   7 total cpu time : 57620.1 secs   av.it.:  12.9
      thresh= 4.864E-07 alpha_mix =  0.700 |ddv_scf|^2 =  4.241E-13

      iter #   8 total cpu time : 58061.7 secs   av.it.:  13.2
      thresh= 6.513E-08 alpha_mix =  0.700 |ddv_scf|^2 =  5.938E-15

     End of self-consistent calculation

     Convergence has been achieved 


     Representation #  6 mode #   6

     Self-consistent Calculation

      iter #   1 total cpu time : 58354.4 secs   av.it.:   7.6
      thresh= 1.000E-02 alpha_mix =  0.700 |ddv_scf|^2 =  1.947E-06

      iter #   2 total cpu time : 58836.5 secs   av.it.:  14.0
      thresh= 1.396E-04 alpha_mix =  0.700 |ddv_scf|^2 =  1.085E-06

      iter #   3 total cpu time : 59291.4 secs   av.it.:  13.3
      thresh= 1.042E-04 alpha_mix =  0.700 |ddv_scf|^2 =  5.394E-08

      iter #   4 total cpu time : 59738.4 secs   av.it.:  13.6
      thresh= 2.322E-05 alpha_mix =  0.700 |ddv_scf|^2 =  1.230E-08

      iter #   5 total cpu time : 60168.3 secs   av.it.:  13.1
      thresh= 1.109E-05 alpha_mix =  0.700 |ddv_scf|^2 =  1.289E-10

      iter #   6 total cpu time : 60650.9 secs   av.it.:  14.2
      thresh= 1.136E-06 alpha_mix =  0.700 |ddv_scf|^2 =  8.986E-11

      iter #   7 total cpu time : 61094.3 secs   av.it.:  13.2
      thresh= 9.480E-07 alpha_mix =  0.700 |ddv_scf|^2 =  2.575E-12

      iter #   8 total cpu time : 61562.3 secs   av.it.:  14.2
      thresh= 1.605E-07 alpha_mix =  0.700 |ddv_scf|^2 =  3.400E-13

      iter #   9 total cpu time : 62041.4 secs   av.it.:  14.4
      thresh= 5.831E-08 alpha_mix =  0.700 |ddv_scf|^2 =  4.550E-14

      iter #  10 total cpu time : 62538.6 secs   av.it.:  13.8
      thresh= 2.133E-08 alpha_mix =  0.700 |ddv_scf|^2 =  2.311E-15

     End of self-consistent calculation

     Convergence has been achieved 


     Representation #  7 mode #   7

     Self-consistent Calculation

      iter #   1 total cpu time : 62841.7 secs   av.it.:   6.7
      thresh= 1.000E-02 alpha_mix =  0.700 |ddv_scf|^2 =  4.459E-07

      iter #   2 total cpu time : 63342.4 secs   av.it.:  13.4
      thresh= 6.678E-05 alpha_mix =  0.700 |ddv_scf|^2 =  5.497E-09

      iter #   3 total cpu time : 63830.9 secs   av.it.:  13.5
      thresh= 7.414E-06 alpha_mix =  0.700 |ddv_scf|^2 =  6.317E-11

      iter #   4 total cpu time : 64315.8 secs   av.it.:  13.4
      thresh= 7.948E-07 alpha_mix =  0.700 |ddv_scf|^2 =  5.360E-13

      iter #   5 total cpu time : 64776.8 secs   av.it.:  13.5
      thresh= 7.321E-08 alpha_mix =  0.700 |ddv_scf|^2 =  3.015E-15

     End of self-consistent calculation

     Convergence has been achieved 


     Representation #  8 mode #   8

     Self-consistent Calculation

      iter #   1 total cpu time : 65404.0 secs   av.it.:   7.0
      thresh= 1.000E-02 alpha_mix =  0.700 |ddv_scf|^2 =  1.552E-06

      iter #   2 total cpu time : 65872.0 secs   av.it.:  13.5
      thresh= 1.246E-04 alpha_mix =  0.700 |ddv_scf|^2 =  1.974E-07

      iter #   3 total cpu time : 66344.8 secs   av.it.:  13.5
      thresh= 4.443E-05 alpha_mix =  0.700 |ddv_scf|^2 =  1.523E-08

      iter #   4 total cpu time : 66775.4 secs   av.it.:  13.2
      thresh= 1.234E-05 alpha_mix =  0.700 |ddv_scf|^2 =  1.842E-09

      iter #   5 total cpu time : 67206.2 secs   av.it.:  13.2
      thresh= 4.292E-06 alpha_mix =  0.700 |ddv_scf|^2 =  3.221E-11

      iter #   6 total cpu time : 67684.1 secs   av.it.:  14.2
      thresh= 5.676E-07 alpha_mix =  0.700 |ddv_scf|^2 =  2.850E-12

      iter #   7 total cpu time : 68141.6 secs   av.it.:  14.0
      thresh= 1.688E-07 alpha_mix =  0.700 |ddv_scf|^2 =  6.345E-14

      iter #   8 total cpu time : 68586.0 secs   av.it.:  13.7
      thresh= 2.519E-08 alpha_mix =  0.700 |ddv_scf|^2 =  2.407E-15

     End of self-consistent calculation

     Convergence has been achieved 


     Representation #  9 mode #   9

     Self-consistent Calculation

      iter #   1 total cpu time : 69379.0 secs   av.it.:   8.5
      thresh= 1.000E-02 alpha_mix =  0.700 |ddv_scf|^2 =  7.640E-06

      iter #   2 total cpu time : 69853.1 secs   av.it.:  14.0
      thresh= 2.764E-04 alpha_mix =  0.700 |ddv_scf|^2 =  7.459E-06

      iter #   3 total cpu time : 70292.9 secs   av.it.:  13.2
      thresh= 2.731E-04 alpha_mix =  0.700 |ddv_scf|^2 =  5.533E-07

      iter #   4 total cpu time : 70734.2 secs   av.it.:  13.0
      thresh= 7.439E-05 alpha_mix =  0.700 |ddv_scf|^2 =  7.528E-10

      iter #   5 total cpu time : 71210.1 secs   av.it.:  13.8
      thresh= 2.744E-06 alpha_mix =  0.700 |ddv_scf|^2 =  1.689E-11

      iter #   6 total cpu time : 71710.3 secs   av.it.:  13.7
      thresh= 4.110E-07 alpha_mix =  0.700 |ddv_scf|^2 =  5.501E-12

      iter #   7 total cpu time : 72272.2 secs   av.it.:  13.6
      thresh= 2.345E-07 alpha_mix =  0.700 |ddv_scf|^2 =  1.004E-13

      iter #   8 total cpu time : 72786.3 secs   av.it.:  13.9
      thresh= 3.169E-08 alpha_mix =  0.700 |ddv_scf|^2 =  2.844E-15

     End of self-consistent calculation

     Convergence has been achieved 


     Representation # 10 mode #  10

     Self-consistent Calculation

      iter #   1 total cpu time : 73063.6 secs   av.it.:   7.0
      thresh= 1.000E-02 alpha_mix =  0.700 |ddv_scf|^2 =  1.237E-06

      iter #   2 total cpu time : 73567.3 secs   av.it.:  13.8
      thresh= 1.112E-04 alpha_mix =  0.700 |ddv_scf|^2 =  2.028E-07

      iter #   3 total cpu time : 74037.2 secs   av.it.:  13.9
      thresh= 4.504E-05 alpha_mix =  0.700 |ddv_scf|^2 =  5.044E-08

      iter #   4 total cpu time : 74545.9 secs   av.it.:  13.0
      thresh= 2.246E-05 alpha_mix =  0.700 |ddv_scf|^2 =  1.899E-09

      iter #   5 total cpu time : 75063.0 secs   av.it.:  13.7
      thresh= 4.358E-06 alpha_mix =  0.700 |ddv_scf|^2 =  4.757E-11

      iter #   6 total cpu time : 75581.9 secs   av.it.:  14.2
      thresh= 6.897E-07 alpha_mix =  0.700 |ddv_scf|^2 =  3.238E-12

      iter #   7 total cpu time : 76087.6 secs   av.it.:  13.7
      thresh= 1.799E-07 alpha_mix =  0.700 |ddv_scf|^2 =  1.280E-13

      iter #   8 total cpu time : 76588.8 secs   av.it.:  13.8
      thresh= 3.578E-08 alpha_mix =  0.700 |ddv_scf|^2 =  2.038E-15

     End of self-consistent calculation

     Convergence has been achieved 


     Representation # 11 mode #  11

     Self-consistent Calculation

      iter #   1 total cpu time : 76889.0 secs   av.it.:   7.4
      thresh= 1.000E-02 alpha_mix =  0.700 |ddv_scf|^2 =  9.617E-07

      iter #   2 total cpu time : 77397.8 secs   av.it.:  14.2
      thresh= 9.807E-05 alpha_mix =  0.700 |ddv_scf|^2 =  3.580E-07

      iter #   3 total cpu time : 77886.7 secs   av.it.:  13.7
      thresh= 5.984E-05 alpha_mix =  0.700 |ddv_scf|^2 =  8.662E-08
