
     Program PWSCF v.6.2.2 starts on  8May2018 at 12:10:21 

     This program is part of the open-source Quantum ESPRESSO suite
     for quantum simulation of materials; please cite
         "P. Giannozzi et al., J. Phys.:Condens. Matter 21 395502 (2009);
         "P. Giannozzi et al., J. Phys.:Condens. Matter 29 465901 (2017);
          URL http://www.quantum-espresso.org", 
     in publications or presentations arising from this work. More details at
     http://www.quantum-espresso.org/quote

     Parallel version (MPI), running on     4 processors

     MPI processes distributed on     1 nodes
     R & G space division:  proc/nbgrp/npool/nimage =       4
     Waiting for input...
     Reading input from standard input
Warning: card  &IONS ignored
Warning: card  / ignored
Warning: card  &CELL ignored
Warning: card  / ignored

     Current dimensions of program PWSCF are:
     Max number of different atomic species (ntypx) = 10
     Max number of k-points (npk) =  40000
     Max angular momentum in pseudopotentials (lmaxx) =  3

     Subspace diagonalization in iterative solution of the eigenvalue problem:
     a serial algorithm will be used

 
     Parallelization info
     --------------------
     sticks:   dense  smooth     PW     G-vecs:    dense   smooth      PW
     Min         500     500    147                11236    11236    1788
     Max         501     501    149                11237    11237    1789
     Sum        2001    2001    593                44945    44945    7155
 


     bravais-lattice index     =            6
     lattice parameter (alat)  =       9.1370  a.u.
     unit-cell volume          =     512.3005 (a.u.)^3
     number of atoms/cell      =            6
     number of atomic types    =            2
     number of electrons       =        52.00
     number of Kohn-Sham states=           26
     kinetic-energy cutoff     =      75.0000  Ry
     charge density cutoff     =     300.0000  Ry
     convergence threshold     =      1.0E-20
     mixing beta               =       0.7000
     number of iterations used =            8  plain     mixing
     Exchange-correlation      = PBE ( 1  4  3  4 0 0)

     celldm(1)=   9.137033  celldm(2)=   0.000000  celldm(3)=   0.671598
     celldm(4)=   0.000000  celldm(5)=   0.000000  celldm(6)=   0.000000

     crystal axes: (cart. coord. in units of alat)
               a(1) = (   1.000000   0.000000   0.000000 )  
               a(2) = (   0.000000   1.000000   0.000000 )  
               a(3) = (   0.000000   0.000000   0.671598 )  

     reciprocal axes: (cart. coord. in units 2 pi/alat)
               b(1) = (  1.000000  0.000000  0.000000 )  
               b(2) = (  0.000000  1.000000  0.000000 )  
               b(3) = (  0.000000  0.000000  1.488987 )  


     PseudoPot. # 1 for Sn read from file:
     ../../Pseudo_potentials/Sn_PBE.upf
     MD5 check sum: 78e6386ae56e929f0568ae8bf606a80c
     Pseudo is Norm-conserving + core correction, Zval = 14.0
     Generated using ONCVPSP code by D. R. Hamann
     Using radial grid of 1628 points,  6 beta functions with: 
                l(1) =   0
                l(2) =   0
                l(3) =   1
                l(4) =   1
                l(5) =   2
                l(6) =   2

     PseudoPot. # 2 for O  read from file:
     ../../Pseudo_potentials/O_PBE.upf
     MD5 check sum: 3e3f909f7470e8921608ab6b1f57bbae
     Pseudo is Norm-conserving + core correction, Zval =  6.0
     Generated using ONCVPSP code by D. R. Hamann
     Using radial grid of  936 points,  5 beta functions with: 
                l(1) =   0
                l(2) =   0
                l(3) =   1
                l(4) =   1
                l(5) =   2

     atomic species   valence    mass     pseudopotential
        Sn            14.00   118.71000     Sn( 1.00)
        O              6.00    15.99900     O ( 1.00)

      4 Sym. Ops. (no inversion) found



   Cartesian axes

     site n.     atom                  positions (alat units)
         1           Sn  tau(   1) = (  -0.0003320  -0.0003320   0.0000000  )
         2           Sn  tau(   2) = (   0.4996675   0.4996675   0.3357989  )
         3           O   tau(   3) = (   0.8063692   0.1929618   0.3357989  )
         4           O   tau(   4) = (   0.1929618   0.8063692   0.3357989  )
         5           O   tau(   5) = (   0.3063705   0.3063705   0.0000000  )
         6           O   tau(   6) = (   0.6929630   0.6929630   0.0000000  )

     number of k points=   301

     Number of k-points >= 100: set verbosity='high' to print them.

     Dense  grid:    44945 G-vectors     FFT dimensions: (  54,  54,  36)

     Estimated max dynamical RAM per process >     185.95 MB

     Estimated total dynamical RAM >     743.78 MB

     Check: negative/imaginary core charge=   -0.000002    0.000000

     Initial potential from superposition of free atoms

     starting charge   51.99690, renormalised to   52.00000
     Starting wfc are   34 randomized atomic wfcs

     total cpu time spent up to now is       32.0 secs

     Self-consistent Calculation

     iteration #  1     ecut=    75.00 Ry     beta= 0.70
     Davidson diagonalization with overlap
     ethr =  1.00E-02,  avg # of iterations =  2.0

     total cpu time spent up to now is      103.2 secs

     total energy              =    -446.84386762 Ry
     Harris-Foulkes estimate   =    -448.03007853 Ry
     estimated scf accuracy    <       1.60892217 Ry

     iteration #  2     ecut=    75.00 Ry     beta= 0.70
     Davidson diagonalization with overlap
     ethr =  3.09E-03,  avg # of iterations =  3.1

     total cpu time spent up to now is      195.3 secs

     total energy              =    -447.25368585 Ry
     Harris-Foulkes estimate   =    -448.07276332 Ry
     estimated scf accuracy    <       1.69603250 Ry

     iteration #  3     ecut=    75.00 Ry     beta= 0.70
     Davidson diagonalization with overlap
     ethr =  3.09E-03,  avg # of iterations =  3.0

     total cpu time spent up to now is      280.9 secs

     total energy              =    -447.58527642 Ry
     Harris-Foulkes estimate   =    -447.58593938 Ry
     estimated scf accuracy    <       0.00605338 Ry

     iteration #  4     ecut=    75.00 Ry     beta= 0.70
     Davidson diagonalization with overlap
     ethr =  1.16E-05,  avg # of iterations =  3.0

     total cpu time spent up to now is      375.5 secs

     total energy              =    -447.58864375 Ry
     Harris-Foulkes estimate   =    -447.58891615 Ry
     estimated scf accuracy    <       0.00057457 Ry

     iteration #  5     ecut=    75.00 Ry     beta= 0.70
     Davidson diagonalization with overlap
     ethr =  1.10E-06,  avg # of iterations =  2.0

     total cpu time spent up to now is      442.4 secs

     total energy              =    -447.58867726 Ry
     Harris-Foulkes estimate   =    -447.58869228 Ry
     estimated scf accuracy    <       0.00004242 Ry

     iteration #  6     ecut=    75.00 Ry     beta= 0.70
     Davidson diagonalization with overlap
     ethr =  8.16E-08,  avg # of iterations =  3.5

     total cpu time spent up to now is      536.1 secs

     total energy              =    -447.58906548 Ry
     Harris-Foulkes estimate   =    -447.58906765 Ry
     estimated scf accuracy    <       0.00000644 Ry

     iteration #  7     ecut=    75.00 Ry     beta= 0.70
     Davidson diagonalization with overlap
     ethr =  1.24E-08,  avg # of iterations =  3.5

     total cpu time spent up to now is      620.7 secs

     total energy              =    -447.58931795 Ry
     Harris-Foulkes estimate   =    -447.58931882 Ry
     estimated scf accuracy    <       0.00000289 Ry

     iteration #  8     ecut=    75.00 Ry     beta= 0.70
     Davidson diagonalization with overlap
     ethr =  5.55E-09,  avg # of iterations =  3.3

     total cpu time spent up to now is      703.1 secs

     total energy              =    -447.58931824 Ry
     Harris-Foulkes estimate   =    -447.58931850 Ry
     estimated scf accuracy    <       0.00000061 Ry

     iteration #  9     ecut=    75.00 Ry     beta= 0.70
     Davidson diagonalization with overlap
     ethr =  1.17E-09,  avg # of iterations =  2.2

     total cpu time spent up to now is      782.0 secs

     total energy              =    -447.58931830 Ry
     Harris-Foulkes estimate   =    -447.58931832 Ry
     estimated scf accuracy    <       0.00000004 Ry

     iteration # 10     ecut=    75.00 Ry     beta= 0.70
     Davidson diagonalization with overlap
     ethr =  8.59E-11,  avg # of iterations =  3.0

     total cpu time spent up to now is      873.0 secs

     total energy              =    -447.58931831 Ry
     Harris-Foulkes estimate   =    -447.58931831 Ry
     estimated scf accuracy    <          3.7E-09 Ry

     iteration # 11     ecut=    75.00 Ry     beta= 0.70
     Davidson diagonalization with overlap
     ethr =  7.16E-12,  avg # of iterations =  3.0

     total cpu time spent up to now is      954.1 secs

     total energy              =    -447.58931831 Ry
     Harris-Foulkes estimate   =    -447.58931831 Ry
     estimated scf accuracy    <          1.6E-10 Ry

     iteration # 12     ecut=    75.00 Ry     beta= 0.70
     Davidson diagonalization with overlap
     ethr =  3.08E-13,  avg # of iterations =  3.1

     total cpu time spent up to now is     1042.7 secs

     total energy              =    -447.58931831 Ry
     Harris-Foulkes estimate   =    -447.58931831 Ry
     estimated scf accuracy    <          6.3E-11 Ry

     iteration # 13     ecut=    75.00 Ry     beta= 0.70
     Davidson diagonalization with overlap
     ethr =  1.21E-13,  avg # of iterations =  3.1

     total cpu time spent up to now is     1123.7 secs

     total energy              =    -447.58931831 Ry
     Harris-Foulkes estimate   =    -447.58931831 Ry
     estimated scf accuracy    <          6.8E-12 Ry

     iteration # 14     ecut=    75.00 Ry     beta= 0.70
     Davidson diagonalization with overlap
     ethr =  1.00E-13,  avg # of iterations =  1.0

     total cpu time spent up to now is     1182.6 secs

     total energy              =    -447.58931831 Ry
     Harris-Foulkes estimate   =    -447.58931831 Ry
     estimated scf accuracy    <          5.1E-13 Ry

     iteration # 15     ecut=    75.00 Ry     beta= 0.70
     Davidson diagonalization with overlap
     ethr =  1.00E-13,  avg # of iterations =  1.0

     total cpu time spent up to now is     1241.8 secs

     total energy              =    -447.58931831 Ry
     Harris-Foulkes estimate   =    -447.58931831 Ry
     estimated scf accuracy    <          8.3E-14 Ry

     iteration # 16     ecut=    75.00 Ry     beta= 0.70
     Davidson diagonalization with overlap
     ethr =  1.00E-13,  avg # of iterations =  1.0

     total cpu time spent up to now is     1300.1 secs

     total energy              =    -447.58931831 Ry
     Harris-Foulkes estimate   =    -447.58931831 Ry
     estimated scf accuracy    <          7.5E-14 Ry

     iteration # 17     ecut=    75.00 Ry     beta= 0.70
     Davidson diagonalization with overlap
     ethr =  1.00E-13,  avg # of iterations =  1.0

     total cpu time spent up to now is     1361.6 secs

     total energy              =    -447.58931831 Ry
     Harris-Foulkes estimate   =    -447.58931831 Ry
     estimated scf accuracy    <          2.6E-14 Ry

     iteration # 18     ecut=    75.00 Ry     beta= 0.70
     Davidson diagonalization with overlap
     ethr =  1.00E-13,  avg # of iterations =  1.0

     total cpu time spent up to now is     1423.8 secs

     total energy              =    -447.58931831 Ry
     Harris-Foulkes estimate   =    -447.58931831 Ry
     estimated scf accuracy    <          4.8E-15 Ry

     iteration # 19     ecut=    75.00 Ry     beta= 0.70
     Davidson diagonalization with overlap
     ethr =  1.00E-13,  avg # of iterations =  1.0

     total cpu time spent up to now is     1487.3 secs

     total energy              =    -447.58931831 Ry
     Harris-Foulkes estimate   =    -447.58931831 Ry
     estimated scf accuracy    <          1.6E-16 Ry

     iteration # 20     ecut=    75.00 Ry     beta= 0.70
     Davidson diagonalization with overlap
     ethr =  1.00E-13,  avg # of iterations =  1.0

     total cpu time spent up to now is     1551.0 secs

     total energy              =    -447.58931831 Ry
     Harris-Foulkes estimate   =    -447.58931831 Ry
     estimated scf accuracy    <          8.5E-17 Ry

     iteration # 21     ecut=    75.00 Ry     beta= 0.70
     Davidson diagonalization with overlap
     ethr =  1.00E-13,  avg # of iterations =  1.0

     total cpu time spent up to now is     1613.9 secs

     total energy              =    -447.58931831 Ry
     Harris-Foulkes estimate   =    -447.58931831 Ry
     estimated scf accuracy    <          1.7E-17 Ry

     iteration # 22     ecut=    75.00 Ry     beta= 0.70
     Davidson diagonalization with overlap
     ethr =  1.00E-13,  avg # of iterations =  1.0

     total cpu time spent up to now is     1675.8 secs

     total energy              =    -447.58931831 Ry
     Harris-Foulkes estimate   =    -447.58931831 Ry
     estimated scf accuracy    <          4.2E-17 Ry

     iteration # 23     ecut=    75.00 Ry     beta= 0.70
     Davidson diagonalization with overlap
     ethr =  1.00E-13,  avg # of iterations =  1.0

     total cpu time spent up to now is     1735.9 secs

     total energy              =    -447.58931831 Ry
     Harris-Foulkes estimate   =    -447.58931831 Ry
     estimated scf accuracy    <          1.5E-17 Ry

     iteration # 24     ecut=    75.00 Ry     beta= 0.70
     Davidson diagonalization with overlap
     ethr =  1.00E-13,  avg # of iterations =  1.0

     total cpu time spent up to now is     1795.3 secs

     total energy              =    -447.58931831 Ry
     Harris-Foulkes estimate   =    -447.58931831 Ry
     estimated scf accuracy    <          2.5E-17 Ry

     iteration # 25     ecut=    75.00 Ry     beta= 0.70
     Davidson diagonalization with overlap
     ethr =  1.00E-13,  avg # of iterations =  1.0

     total cpu time spent up to now is     1856.6 secs

     total energy              =    -447.58931831 Ry
     Harris-Foulkes estimate   =    -447.58931831 Ry
     estimated scf accuracy    <          1.9E-18 Ry

     iteration # 26     ecut=    75.00 Ry     beta= 0.70
     Davidson diagonalization with overlap
     ethr =  1.00E-13,  avg # of iterations =  1.0

     total cpu time spent up to now is     1918.0 secs

     total energy              =    -447.58931831 Ry
     Harris-Foulkes estimate   =    -447.58931831 Ry
     estimated scf accuracy    <          9.3E-19 Ry

     iteration # 27     ecut=    75.00 Ry     beta= 0.70
     Davidson diagonalization with overlap
     ethr =  1.00E-13,  avg # of iterations =  1.0

     total cpu time spent up to now is     1978.9 secs

     total energy              =    -447.58931831 Ry
     Harris-Foulkes estimate   =    -447.58931831 Ry
     estimated scf accuracy    <          5.0E-19 Ry

     iteration # 28     ecut=    75.00 Ry     beta= 0.70
     Davidson diagonalization with overlap
     ethr =  1.00E-13,  avg # of iterations =  1.0

     total cpu time spent up to now is     2039.3 secs

     total energy              =    -447.58931831 Ry
     Harris-Foulkes estimate   =    -447.58931831 Ry
     estimated scf accuracy    <          2.2E-19 Ry

     iteration # 29     ecut=    75.00 Ry     beta= 0.70
     Davidson diagonalization with overlap
     ethr =  1.00E-13,  avg # of iterations =  1.0

     total cpu time spent up to now is     2099.3 secs

     total energy              =    -447.58931831 Ry
     Harris-Foulkes estimate   =    -447.58931831 Ry
     estimated scf accuracy    <          4.4E-19 Ry

     iteration # 30     ecut=    75.00 Ry     beta= 0.70
     Davidson diagonalization with overlap
     ethr =  1.00E-13,  avg # of iterations =  1.0

     total cpu time spent up to now is     2160.2 secs

     total energy              =    -447.58931831 Ry
     Harris-Foulkes estimate   =    -447.58931831 Ry
     estimated scf accuracy    <          3.6E-20 Ry

     iteration # 31     ecut=    75.00 Ry     beta= 0.70
     Davidson diagonalization with overlap
     ethr =  1.00E-13,  avg # of iterations =  1.0

     total cpu time spent up to now is     2221.1 secs

     total energy              =    -447.58931831 Ry
     Harris-Foulkes estimate   =    -447.58931831 Ry
     estimated scf accuracy    <          1.8E-20 Ry

     iteration # 32     ecut=    75.00 Ry     beta= 0.70
     Davidson diagonalization with overlap
     ethr =  1.00E-13,  avg # of iterations =  1.0

     total cpu time spent up to now is     2281.5 secs

     End of self-consistent calculation

     Number of k-points >= 100: set verbosity='high' to print the bands.

     highest occupied level (ev):     8.9024

!    total energy              =    -447.58931831 Ry
     Harris-Foulkes estimate   =    -447.58931831 Ry
     estimated scf accuracy    <          8.7E-21 Ry

     The total energy is the sum of the following terms:

     one-electron contribution =    -125.64517910 Ry
     hartree contribution      =     101.52747703 Ry
     xc contribution           =    -122.07157651 Ry
     ewald contribution        =    -301.40003973 Ry

     convergence has been achieved in  32 iterations

     Forces acting on atoms (cartesian axes, Ry/au):

     atom    1 type  1   force =     0.00000148    0.00000148    0.00000000
     atom    2 type  1   force =     0.00000472    0.00000472    0.00000000
     atom    3 type  2   force =     0.00004329   -0.00004680    0.00000000
     atom    4 type  2   force =    -0.00004680    0.00004329    0.00000000
     atom    5 type  2   force =     0.00004371    0.00004371    0.00000000
     atom    6 type  2   force =    -0.00004641   -0.00004641    0.00000000

     Total force =     0.000128     Total SCF correction =     0.000000


     Computing stress (Cartesian axis) and pressure

          total   stress  (Ry/bohr**3)                   (kbar)     P=   -4.76
  -0.00003295  -0.00000000   0.00000000         -4.85     -0.00      0.00
  -0.00000000  -0.00003295  -0.00000000         -0.00     -4.85     -0.00
   0.00000000   0.00000000  -0.00003124          0.00      0.00     -4.60


     Writing output data file epw.save
 
     init_run     :     30.90s CPU     31.34s WALL (       1 calls)
     electrons    :   2184.88s CPU   2249.58s WALL (       1 calls)
     forces       :      9.21s CPU      9.39s WALL (       1 calls)
     stress       :     19.21s CPU     19.51s WALL (       1 calls)

     Called by init_run:
     wfcinit      :     30.41s CPU     30.83s WALL (       1 calls)
     potinit      :      0.12s CPU      0.13s WALL (       1 calls)
     hinit0       :      0.23s CPU      0.25s WALL (       1 calls)

     Called by electrons:
     c_bands      :   1899.54s CPU   1955.84s WALL (      32 calls)
     sum_band     :    283.76s CPU    291.99s WALL (      32 calls)
     v_of_rho     :      1.03s CPU      1.06s WALL (      33 calls)
     mix_rho      :      0.52s CPU      0.53s WALL (      32 calls)

     Called by c_bands:
     init_us_2    :     38.94s CPU     40.20s WALL (   20167 calls)
     cegterg      :   1697.79s CPU   1748.12s WALL (    9632 calls)

     Called by sum_band:

     Called by *egterg:
     h_psi        :   1415.08s CPU   1456.44s WALL (   27054 calls)
     g_psi        :      8.23s CPU      8.48s WALL (   17121 calls)
     cdiaghg      :     57.12s CPU     58.87s WALL (   26753 calls)

     Called by h_psi:
     h_psi:pot    :   1403.78s CPU   1444.43s WALL (   27054 calls)
     h_psi:calbec :    128.36s CPU    131.39s WALL (   27054 calls)
     vloc_psi     :   1188.69s CPU   1223.44s WALL (   27054 calls)
     add_vuspsi   :     86.53s CPU     89.35s WALL (   27054 calls)

     General routines
     calbec       :    141.19s CPU    144.41s WALL (   28559 calls)
     fft          :      0.69s CPU      0.72s WALL (     355 calls)
     ffts         :      0.05s CPU      0.05s WALL (      32 calls)
     fftw         :   1353.30s CPU   1392.34s WALL ( 1415298 calls)
 
     Parallel routines
     fft_scatt_xy :     81.77s CPU     85.86s WALL ( 1415685 calls)
     fft_scatt_yz :    477.06s CPU    486.93s WALL ( 1415685 calls)
 
     PWSCF        : 37m27.07s CPU    38m47.33s WALL

 
   This run was terminated on:  12:49: 8   8May2018            

=------------------------------------------------------------------------------=
   JOB DONE.
=------------------------------------------------------------------------------=
