
     Program PWSCF v.6.2.2 starts on 21Apr2018 at 12:23:41 

     This program is part of the open-source Quantum ESPRESSO suite
     for quantum simulation of materials; please cite
         "P. Giannozzi et al., J. Phys.:Condens. Matter 21 395502 (2009);
         "P. Giannozzi et al., J. Phys.:Condens. Matter 29 465901 (2017);
          URL http://www.quantum-espresso.org", 
     in publications or presentations arising from this work. More details at
     http://www.quantum-espresso.org/quote

     Parallel version (MPI), running on     2 processors

     MPI processes distributed on     1 nodes
     R & G space division:  proc/nbgrp/npool/nimage =       2
     Reading input from Conv_etot-kp.in
Warning: card &IONS ignored
Warning: card / ignored
Warning: card &CELL ignored
Warning: card / ignored

     Current dimensions of program PWSCF are:
     Max number of different atomic species (ntypx) = 10
     Max number of k-points (npk) =  40000
     Max angular momentum in pseudopotentials (lmaxx) =  3

     Subspace diagonalization in iterative solution of the eigenvalue problem:
     a serial algorithm will be used

 
     Parallelization info
     --------------------
     sticks:   dense  smooth     PW     G-vecs:    dense   smooth      PW
     Min         332     332    110                 4313     4313     791
     Max         333     333    111                 4314     4314     792
     Sum         665     665    221                 8627     8627    1583
 


     bravais-lattice index     =            6
     lattice parameter (alat)  =       9.1100  a.u.
     unit-cell volume          =     506.5589 (a.u.)^3
     number of atoms/cell      =            6
     number of atomic types    =            2
     number of electrons       =        52.00
     number of Kohn-Sham states=           26
     kinetic-energy cutoff     =      25.0000  Ry
     charge density cutoff     =     100.0000  Ry
     convergence threshold     =      1.0E-12
     mixing beta               =       0.7000
     number of iterations used =            8  plain     mixing
     Exchange-correlation      = PBE ( 1  4  3  4 0 0)

     celldm(1)=   9.110000  celldm(2)=   0.000000  celldm(3)=   0.670000
     celldm(4)=   0.000000  celldm(5)=   0.000000  celldm(6)=   0.000000

     crystal axes: (cart. coord. in units of alat)
               a(1) = (   1.000000   0.000000   0.000000 )  
               a(2) = (   0.000000   1.000000   0.000000 )  
               a(3) = (   0.000000   0.000000   0.670000 )  

     reciprocal axes: (cart. coord. in units 2 pi/alat)
               b(1) = (  1.000000  0.000000  0.000000 )  
               b(2) = (  0.000000  1.000000  0.000000 )  
               b(3) = (  0.000000  0.000000  1.492537 )  


     PseudoPot. # 1 for Sn read from file:
     ../../Pseudo_potentials/Sn_PBE.upf
     MD5 check sum: 78e6386ae56e929f0568ae8bf606a80c
     Pseudo is Norm-conserving + core correction, Zval = 14.0
     Generated using ONCVPSP code by D. R. Hamann
     Using radial grid of 1628 points,  6 beta functions with: 
                l(1) =   0
                l(2) =   0
                l(3) =   1
                l(4) =   1
                l(5) =   2
                l(6) =   2

     PseudoPot. # 2 for O  read from file:
     ../../Pseudo_potentials/O_PBE.upf
     MD5 check sum: 3e3f909f7470e8921608ab6b1f57bbae
     Pseudo is Norm-conserving + core correction, Zval =  6.0
     Generated using ONCVPSP code by D. R. Hamann
     Using radial grid of  936 points,  5 beta functions with: 
                l(1) =   0
                l(2) =   0
                l(3) =   1
                l(4) =   1
                l(5) =   2

     atomic species   valence    mass     pseudopotential
        Sn            14.00   118.71000     Sn( 1.00)
        O              6.00    15.99900     O ( 1.00)

      4 Sym. Ops. (no inversion) found



   Cartesian axes

     site n.     atom                  positions (alat units)
         1           Sn  tau(   1) = (   0.0000000   0.0000000   0.0000000  )
         2           Sn  tau(   2) = (   0.5000000   0.5000000   0.3350000  )
         3           O   tau(   3) = (   0.8060000   0.1930000   0.3350000  )
         4           O   tau(   4) = (   0.1930000   0.8060000   0.3350000  )
         5           O   tau(   5) = (   0.3060000   0.3060000   0.0000000  )
         6           O   tau(   6) = (   0.6930000   0.6930000   0.0000000  )

     number of k points=     6
                       cart. coord. in units 2pi/alat
        k(    1) = (   0.0000000   0.0000000   0.0000000), wk =   0.2500000
        k(    2) = (   0.0000000   0.0000000  -0.7462687), wk =   0.2500000
        k(    3) = (   0.0000000  -0.5000000   0.0000000), wk =   0.5000000
        k(    4) = (   0.0000000  -0.5000000  -0.7462687), wk =   0.5000000
        k(    5) = (  -0.5000000  -0.5000000   0.0000000), wk =   0.2500000
        k(    6) = (  -0.5000000  -0.5000000  -0.7462687), wk =   0.2500000

     Dense  grid:     8627 G-vectors     FFT dimensions: (  30,  30,  20)

     Estimated max dynamical RAM per process >       9.30 MB

     Estimated total dynamical RAM >      18.59 MB

     Check: negative/imaginary core charge=   -0.002394    0.000000

     Initial potential from superposition of free atoms
     Check: negative starting charge=   -0.009566

     starting charge   51.99690, renormalised to   52.00000

     negative rho (up, down):  9.566E-03 0.000E+00
     Starting wfc are   34 randomized atomic wfcs

     total cpu time spent up to now is        0.6 secs

     Self-consistent Calculation

     iteration #  1     ecut=    25.00 Ry     beta= 0.70
     Davidson diagonalization with overlap
     ethr =  1.00E-02,  avg # of iterations =  2.0

     negative rho (up, down):  2.853E-03 0.000E+00

     total cpu time spent up to now is        0.9 secs

     total energy              =    -429.85596180 Ry
     Harris-Foulkes estimate   =    -432.84274006 Ry
     estimated scf accuracy    <       4.10997425 Ry

     iteration #  2     ecut=    25.00 Ry     beta= 0.70
     Davidson diagonalization with overlap
     ethr =  7.90E-03,  avg # of iterations =  2.0

     negative rho (up, down):  9.023E-04 0.000E+00

     total cpu time spent up to now is        1.1 secs

     total energy              =    -430.63475610 Ry
     Harris-Foulkes estimate   =    -430.78442832 Ry
     estimated scf accuracy    <       0.26092128 Ry

     iteration #  3     ecut=    25.00 Ry     beta= 0.70
     Davidson diagonalization with overlap
     ethr =  5.02E-04,  avg # of iterations =  3.3

     negative rho (up, down):  1.487E-04 0.000E+00

     total cpu time spent up to now is        1.4 secs

     total energy              =    -430.69962930 Ry
     Harris-Foulkes estimate   =    -430.71006560 Ry
     estimated scf accuracy    <       0.02518779 Ry

     iteration #  4     ecut=    25.00 Ry     beta= 0.70
     Davidson diagonalization with overlap
     ethr =  4.84E-05,  avg # of iterations =  2.8

     total cpu time spent up to now is        1.7 secs

     total energy              =    -430.70321860 Ry
     Harris-Foulkes estimate   =    -430.70463448 Ry
     estimated scf accuracy    <       0.00279893 Ry

     iteration #  5     ecut=    25.00 Ry     beta= 0.70
     Davidson diagonalization with overlap
     ethr =  5.38E-06,  avg # of iterations =  2.7

     total cpu time spent up to now is        1.9 secs

     total energy              =    -430.70384955 Ry
     Harris-Foulkes estimate   =    -430.70395829 Ry
     estimated scf accuracy    <       0.00021295 Ry

     iteration #  6     ecut=    25.00 Ry     beta= 0.70
     Davidson diagonalization with overlap
     ethr =  4.10E-07,  avg # of iterations =  2.8

     total cpu time spent up to now is        2.2 secs

     total energy              =    -430.70389798 Ry
     Harris-Foulkes estimate   =    -430.70390576 Ry
     estimated scf accuracy    <       0.00001539 Ry

     iteration #  7     ecut=    25.00 Ry     beta= 0.70
     Davidson diagonalization with overlap
     ethr =  2.96E-08,  avg # of iterations =  3.7

     total cpu time spent up to now is        2.5 secs

     total energy              =    -430.70390096 Ry
     Harris-Foulkes estimate   =    -430.70390341 Ry
     estimated scf accuracy    <       0.00000568 Ry

     iteration #  8     ecut=    25.00 Ry     beta= 0.70
     Davidson diagonalization with overlap
     ethr =  1.09E-08,  avg # of iterations =  3.2

     total cpu time spent up to now is        2.8 secs

     total energy              =    -430.70390210 Ry
     Harris-Foulkes estimate   =    -430.70390214 Ry
     estimated scf accuracy    <       0.00000010 Ry

     iteration #  9     ecut=    25.00 Ry     beta= 0.70
     Davidson diagonalization with overlap
     ethr =  1.98E-10,  avg # of iterations =  3.5

     total cpu time spent up to now is        3.1 secs

     total energy              =    -430.70390212 Ry
     Harris-Foulkes estimate   =    -430.70390214 Ry
     estimated scf accuracy    <       0.00000004 Ry

     iteration # 10     ecut=    25.00 Ry     beta= 0.70
     Davidson diagonalization with overlap
     ethr =  8.36E-11,  avg # of iterations =  3.5

     total cpu time spent up to now is        3.3 secs

     total energy              =    -430.70390213 Ry
     Harris-Foulkes estimate   =    -430.70390214 Ry
     estimated scf accuracy    <       0.00000002 Ry

     iteration # 11     ecut=    25.00 Ry     beta= 0.70
     Davidson diagonalization with overlap
     ethr =  4.23E-11,  avg # of iterations =  3.2

     total cpu time spent up to now is        3.6 secs

     total energy              =    -430.70390213 Ry
     Harris-Foulkes estimate   =    -430.70390213 Ry
     estimated scf accuracy    <          5.2E-10 Ry

     iteration # 12     ecut=    25.00 Ry     beta= 0.70
     Davidson diagonalization with overlap
     ethr =  1.00E-12,  avg # of iterations =  2.8

     total cpu time spent up to now is        3.8 secs

     total energy              =    -430.70390213 Ry
     Harris-Foulkes estimate   =    -430.70390213 Ry
     estimated scf accuracy    <          1.1E-11 Ry

     iteration # 13     ecut=    25.00 Ry     beta= 0.70
     Davidson diagonalization with overlap
     ethr =  1.00E-13,  avg # of iterations =  2.5

     total cpu time spent up to now is        4.1 secs

     End of self-consistent calculation

          k = 0.0000 0.0000 0.0000 (  1065 PWs)   bands (ev):

   -12.0148 -11.4502 -10.0185 -10.0185 -10.0049  -9.9239  -9.8504  -9.8473
    -9.8331  -9.5438  -9.0141  -8.8904  -8.8904  -6.9903   1.0584   5.6555
     5.6555   5.9768   6.9657   7.8676   8.0762   9.1278   9.2180   9.2180
     9.3276   9.3276

          k = 0.0000 0.0000-0.7463 (  1058 PWs)   bands (ev):

   -11.3759 -11.3757 -10.8785 -10.8784  -9.4052  -9.4052  -9.2113  -9.2112
    -9.1508  -9.1507  -8.6272  -8.6271  -7.4476  -7.4476   2.0082   2.0083
     5.5653   5.5653   6.0310   6.0310   7.3692   7.3692   8.3700   8.3700
     8.8317   8.8317

          k = 0.0000-0.5000 0.0000 (  1078 PWs)   bands (ev):

   -11.4795 -11.4771 -10.6685 -10.6680 -10.2232 -10.2228  -9.8802  -9.8800
    -9.8649  -9.8643  -9.5190  -9.5179  -7.9640  -7.9598   2.6600   2.6699
     6.6043   6.6165   6.7172   6.7196   8.0104   8.0136   9.2246   9.2284
     9.3374   9.3404

          k = 0.0000-0.5000-0.7463 (  1096 PWs)   bands (ev):

   -12.0458 -12.0457 -10.5109 -10.5107 -10.1645 -10.1638 -10.1596 -10.1592
    -9.8234  -9.8234  -9.6726  -9.6726  -7.3987  -7.3987   2.2640   2.2641
     3.9928   3.9929   5.4194   5.4195   8.3015   8.3015   8.7390   8.7391
     9.6661   9.6662

          k =-0.5000-0.5000 0.0000 (  1084 PWs)   bands (ev):

   -11.7188 -11.7187 -10.5620 -10.5619  -9.9909  -9.9909  -9.9365  -9.9329
    -9.9010  -9.8973  -9.8328  -9.8326  -8.1883  -8.1883   3.6151   3.6152
     5.8487   5.8488   6.7629   6.7630   7.7188   7.7188   9.0849   9.0850
     9.1298   9.1299

          k =-0.5000-0.5000-0.7463 (  1072 PWs)   bands (ev):

   -11.5613 -11.5611 -11.0288 -11.0288  -9.8349  -9.8348  -9.5610  -9.5610
    -9.4739  -9.4738  -8.8664  -8.8663  -7.5081  -7.5081   1.3782   1.3783
     4.8135   4.8135   7.3260   7.3260   7.3392   7.3392   8.9158   8.9158
     9.2067   9.2068

     highest occupied level (ev):     9.6662

!    total energy              =    -430.70390213 Ry
     Harris-Foulkes estimate   =    -430.70390213 Ry
     estimated scf accuracy    <          5.6E-13 Ry

     The total energy is the sum of the following terms:

     one-electron contribution =     -97.22973135 Ry
     hartree contribution      =      85.96078491 Ry
     xc contribution           =    -116.95361735 Ry
     ewald contribution        =    -302.48133834 Ry

     convergence has been achieved in  13 iterations

     Writing output data file SnO2.save
 
     init_run     :      0.17s CPU      0.32s WALL (       1 calls)
     electrons    :      3.34s CPU      3.53s WALL (       1 calls)

     Called by init_run:
     wfcinit      :      0.10s CPU      0.18s WALL (       1 calls)
     potinit      :      0.02s CPU      0.04s WALL (       1 calls)
     hinit0       :      0.04s CPU      0.09s WALL (       1 calls)

     Called by electrons:
     c_bands      :      2.89s CPU      3.03s WALL (      13 calls)
     sum_band     :      0.37s CPU      0.39s WALL (      13 calls)
     v_of_rho     :      0.07s CPU      0.08s WALL (      14 calls)
     mix_rho      :      0.01s CPU      0.01s WALL (      13 calls)

     Called by c_bands:
     init_us_2    :      0.02s CPU      0.05s WALL (     162 calls)
     cegterg      :      2.65s CPU      2.76s WALL (      78 calls)

     Called by sum_band:

     Called by *egterg:
     h_psi        :      2.03s CPU      2.20s WALL (     312 calls)
     g_psi        :      0.01s CPU      0.02s WALL (     228 calls)
     cdiaghg      :      0.38s CPU      0.39s WALL (     306 calls)

     Called by h_psi:
     h_psi:pot    :      2.03s CPU      2.19s WALL (     312 calls)
     h_psi:calbec :      0.16s CPU      0.14s WALL (     312 calls)
     vloc_psi     :      1.82s CPU      1.91s WALL (     312 calls)
     add_vuspsi   :      0.05s CPU      0.13s WALL (     312 calls)

     General routines
     calbec       :      0.16s CPU      0.14s WALL (     312 calls)
     fft          :      0.04s CPU      0.05s WALL (     141 calls)
     ffts         :      0.00s CPU      0.00s WALL (      13 calls)
     fftw         :      2.12s CPU      2.11s WALL (   12992 calls)
 
     Parallel routines
     fft_scatt_xy :      0.07s CPU      0.18s WALL (   13146 calls)
     fft_scatt_yz :      1.55s CPU      0.39s WALL (   13146 calls)
 
     PWSCF        :     3.72s CPU         4.49s WALL

 
   This run was terminated on:  12:23:45  21Apr2018            

=------------------------------------------------------------------------------=
   JOB DONE.
=------------------------------------------------------------------------------=
