
     Program PWSCF v.6.2.2 starts on 21Apr2018 at 12:27:59 

     This program is part of the open-source Quantum ESPRESSO suite
     for quantum simulation of materials; please cite
         "P. Giannozzi et al., J. Phys.:Condens. Matter 21 395502 (2009);
         "P. Giannozzi et al., J. Phys.:Condens. Matter 29 465901 (2017);
          URL http://www.quantum-espresso.org", 
     in publications or presentations arising from this work. More details at
     http://www.quantum-espresso.org/quote

     Parallel version (MPI), running on     2 processors

     MPI processes distributed on     1 nodes
     R & G space division:  proc/nbgrp/npool/nimage =       2
     Reading input from Conv_etot-kp.in
Warning: card &IONS ignored
Warning: card / ignored
Warning: card &CELL ignored
Warning: card / ignored

     Current dimensions of program PWSCF are:
     Max number of different atomic species (ntypx) = 10
     Max number of k-points (npk) =  40000
     Max angular momentum in pseudopotentials (lmaxx) =  3

     Subspace diagonalization in iterative solution of the eigenvalue problem:
     a serial algorithm will be used

 
     Parallelization info
     --------------------
     sticks:   dense  smooth     PW     G-vecs:    dense   smooth      PW
     Min         332     332    110                 4313     4313     791
     Max         333     333    111                 4314     4314     792
     Sum         665     665    221                 8627     8627    1583
 


     bravais-lattice index     =            6
     lattice parameter (alat)  =       9.1100  a.u.
     unit-cell volume          =     506.5589 (a.u.)^3
     number of atoms/cell      =            6
     number of atomic types    =            2
     number of electrons       =        52.00
     number of Kohn-Sham states=           26
     kinetic-energy cutoff     =      25.0000  Ry
     charge density cutoff     =     100.0000  Ry
     convergence threshold     =      1.0E-12
     mixing beta               =       0.7000
     number of iterations used =            8  plain     mixing
     Exchange-correlation      = PBE ( 1  4  3  4 0 0)

     celldm(1)=   9.110000  celldm(2)=   0.000000  celldm(3)=   0.670000
     celldm(4)=   0.000000  celldm(5)=   0.000000  celldm(6)=   0.000000

     crystal axes: (cart. coord. in units of alat)
               a(1) = (   1.000000   0.000000   0.000000 )  
               a(2) = (   0.000000   1.000000   0.000000 )  
               a(3) = (   0.000000   0.000000   0.670000 )  

     reciprocal axes: (cart. coord. in units 2 pi/alat)
               b(1) = (  1.000000  0.000000  0.000000 )  
               b(2) = (  0.000000  1.000000  0.000000 )  
               b(3) = (  0.000000  0.000000  1.492537 )  


     PseudoPot. # 1 for Sn read from file:
     ../../Pseudo_potentials/Sn_PBE.upf
     MD5 check sum: 78e6386ae56e929f0568ae8bf606a80c
     Pseudo is Norm-conserving + core correction, Zval = 14.0
     Generated using ONCVPSP code by D. R. Hamann
     Using radial grid of 1628 points,  6 beta functions with: 
                l(1) =   0
                l(2) =   0
                l(3) =   1
                l(4) =   1
                l(5) =   2
                l(6) =   2

     PseudoPot. # 2 for O  read from file:
     ../../Pseudo_potentials/O_PBE.upf
     MD5 check sum: 3e3f909f7470e8921608ab6b1f57bbae
     Pseudo is Norm-conserving + core correction, Zval =  6.0
     Generated using ONCVPSP code by D. R. Hamann
     Using radial grid of  936 points,  5 beta functions with: 
                l(1) =   0
                l(2) =   0
                l(3) =   1
                l(4) =   1
                l(5) =   2

     atomic species   valence    mass     pseudopotential
        Sn            14.00   118.71000     Sn( 1.00)
        O              6.00    15.99900     O ( 1.00)

      4 Sym. Ops. (no inversion) found



   Cartesian axes

     site n.     atom                  positions (alat units)
         1           Sn  tau(   1) = (   0.0000000   0.0000000   0.0000000  )
         2           Sn  tau(   2) = (   0.5000000   0.5000000   0.3350000  )
         3           O   tau(   3) = (   0.8060000   0.1930000   0.3350000  )
         4           O   tau(   4) = (   0.1930000   0.8060000   0.3350000  )
         5           O   tau(   5) = (   0.3060000   0.3060000   0.0000000  )
         6           O   tau(   6) = (   0.6930000   0.6930000   0.0000000  )

     number of k points=   301

     Number of k-points >= 100: set verbosity='high' to print them.

     Dense  grid:     8627 G-vectors     FFT dimensions: (  30,  30,  20)

     Estimated max dynamical RAM per process >      71.79 MB

     Estimated total dynamical RAM >     143.59 MB

     Check: negative/imaginary core charge=   -0.002394    0.000000

     Initial potential from superposition of free atoms
     Check: negative starting charge=   -0.009566

     starting charge   51.99690, renormalised to   52.00000

     negative rho (up, down):  9.566E-03 0.000E+00
     Starting wfc are   34 randomized atomic wfcs

     total cpu time spent up to now is        5.3 secs

     Self-consistent Calculation

     iteration #  1     ecut=    25.00 Ry     beta= 0.70
     Davidson diagonalization with overlap
     ethr =  1.00E-02,  avg # of iterations =  2.0

     negative rho (up, down):  2.854E-03 0.000E+00

     total cpu time spent up to now is       19.1 secs

     total energy              =    -429.62689828 Ry
     Harris-Foulkes estimate   =    -432.65702069 Ry
     estimated scf accuracy    <       4.17149218 Ry

     iteration #  2     ecut=    25.00 Ry     beta= 0.70
     Davidson diagonalization with overlap
     ethr =  8.02E-03,  avg # of iterations =  2.0

     negative rho (up, down):  8.835E-04 0.000E+00

     total cpu time spent up to now is       31.7 secs

     total energy              =    -430.40192414 Ry
     Harris-Foulkes estimate   =    -430.54313058 Ry
     estimated scf accuracy    <       0.25007710 Ry

     iteration #  3     ecut=    25.00 Ry     beta= 0.70
     Davidson diagonalization with overlap
     ethr =  4.81E-04,  avg # of iterations =  2.8

     negative rho (up, down):  1.605E-04 0.000E+00

     total cpu time spent up to now is       45.2 secs

     total energy              =    -430.44805120 Ry
     Harris-Foulkes estimate   =    -430.46196238 Ry
     estimated scf accuracy    <       0.02981340 Ry

     iteration #  4     ecut=    25.00 Ry     beta= 0.70
     Davidson diagonalization with overlap
     ethr =  5.73E-05,  avg # of iterations =  2.9

     total cpu time spent up to now is       58.7 secs

     total energy              =    -430.45348942 Ry
     Harris-Foulkes estimate   =    -430.45530499 Ry
     estimated scf accuracy    <       0.00355385 Ry

     iteration #  5     ecut=    25.00 Ry     beta= 0.70
     Davidson diagonalization with overlap
     ethr =  6.83E-06,  avg # of iterations =  3.0

     total cpu time spent up to now is       72.5 secs

     total energy              =    -430.45432236 Ry
     Harris-Foulkes estimate   =    -430.45440678 Ry
     estimated scf accuracy    <       0.00017355 Ry

     iteration #  6     ecut=    25.00 Ry     beta= 0.70
     Davidson diagonalization with overlap
     ethr =  3.34E-07,  avg # of iterations =  3.0

     total cpu time spent up to now is       86.4 secs

     total energy              =    -430.45436619 Ry
     Harris-Foulkes estimate   =    -430.45437081 Ry
     estimated scf accuracy    <       0.00001004 Ry

     iteration #  7     ecut=    25.00 Ry     beta= 0.70
     Davidson diagonalization with overlap
     ethr =  1.93E-08,  avg # of iterations =  3.1

     total cpu time spent up to now is       99.7 secs

     total energy              =    -430.45436754 Ry
     Harris-Foulkes estimate   =    -430.45436830 Ry
     estimated scf accuracy    <       0.00000191 Ry

     iteration #  8     ecut=    25.00 Ry     beta= 0.70
     Davidson diagonalization with overlap
     ethr =  3.66E-09,  avg # of iterations =  3.0

     total cpu time spent up to now is      112.5 secs

     total energy              =    -430.45436785 Ry
     Harris-Foulkes estimate   =    -430.45436787 Ry
     estimated scf accuracy    <       0.00000005 Ry

     iteration #  9     ecut=    25.00 Ry     beta= 0.70
     Davidson diagonalization with overlap
     ethr =  9.14E-11,  avg # of iterations =  3.3

     total cpu time spent up to now is      128.5 secs

     total energy              =    -430.45436786 Ry
     Harris-Foulkes estimate   =    -430.45436787 Ry
     estimated scf accuracy    <       0.00000001 Ry

     iteration # 10     ecut=    25.00 Ry     beta= 0.70
     Davidson diagonalization with overlap
     ethr =  2.48E-11,  avg # of iterations =  3.0

     total cpu time spent up to now is      141.4 secs

     total energy              =    -430.45436786 Ry
     Harris-Foulkes estimate   =    -430.45436787 Ry
     estimated scf accuracy    <          3.0E-09 Ry

     iteration # 11     ecut=    25.00 Ry     beta= 0.70
     Davidson diagonalization with overlap
     ethr =  5.81E-12,  avg # of iterations =  3.1

     total cpu time spent up to now is      155.1 secs

     total energy              =    -430.45436786 Ry
     Harris-Foulkes estimate   =    -430.45436786 Ry
     estimated scf accuracy    <          1.3E-10 Ry

     iteration # 12     ecut=    25.00 Ry     beta= 0.70
     Davidson diagonalization with overlap
     ethr =  2.50E-13,  avg # of iterations =  3.0

     total cpu time spent up to now is      168.7 secs

     End of self-consistent calculation

     Number of k-points >= 100: set verbosity='high' to print the bands.

     highest occupied level (ev):     9.8298

!    total energy              =    -430.45436786 Ry
     Harris-Foulkes estimate   =    -430.45436786 Ry
     estimated scf accuracy    <          7.8E-13 Ry

     The total energy is the sum of the following terms:

     one-electron contribution =     -96.64733462 Ry
     hartree contribution      =      85.51100512 Ry
     xc contribution           =    -116.83670002 Ry
     ewald contribution        =    -302.48133834 Ry

     convergence has been achieved in  12 iterations

     Writing output data file SnO2.save
 
     init_run     :      4.65s CPU      4.90s WALL (       1 calls)
     electrons    :    156.40s CPU    163.32s WALL (       1 calls)

     Called by init_run:
     wfcinit      :      4.57s CPU      4.81s WALL (       1 calls)
     potinit      :      0.02s CPU      0.02s WALL (       1 calls)
     hinit0       :      0.05s CPU      0.06s WALL (       1 calls)

     Called by electrons:
     c_bands      :    139.78s CPU    145.68s WALL (      12 calls)
     sum_band     :     16.54s CPU     17.54s WALL (      12 calls)
     v_of_rho     :      0.07s CPU      0.07s WALL (      13 calls)
     mix_rho      :      0.01s CPU      0.01s WALL (      12 calls)

     Called by c_bands:
     init_us_2    :      1.23s CPU      2.38s WALL (    7525 calls)
     cegterg      :    127.99s CPU    133.17s WALL (    3612 calls)

     Called by sum_band:

     Called by *egterg:
     h_psi        :     96.46s CPU    103.25s WALL (   14225 calls)
     g_psi        :      0.59s CPU      1.05s WALL (   10312 calls)
     cdiaghg      :     18.65s CPU     18.53s WALL (   13924 calls)

     Called by h_psi:
     h_psi:pot    :     96.25s CPU    102.82s WALL (   14225 calls)
     h_psi:calbec :      7.72s CPU      6.57s WALL (   14225 calls)
     vloc_psi     :     86.82s CPU     90.01s WALL (   14225 calls)
     add_vuspsi   :      1.69s CPU      6.20s WALL (   14225 calls)

     General routines
     calbec       :      7.72s CPU      6.55s WALL (   14225 calls)
     fft          :      0.03s CPU      0.03s WALL (     131 calls)
     ffts         :      0.00s CPU      0.00s WALL (      12 calls)
     fftw         :    101.62s CPU     98.92s WALL (  623602 calls)
 
     Parallel routines
     fft_scatt_xy :      1.12s CPU      8.45s WALL (  623745 calls)
     fft_scatt_yz :     87.59s CPU     14.07s WALL (  623745 calls)
 
     PWSCF        :  2m41.45s CPU     2m58.37s WALL

 
   This run was terminated on:  12:30:57  21Apr2018            

=------------------------------------------------------------------------------=
   JOB DONE.
=------------------------------------------------------------------------------=
