
     Program PWSCF v.6.2.2 starts on 21Apr2018 at 12:24: 8 

     This program is part of the open-source Quantum ESPRESSO suite
     for quantum simulation of materials; please cite
         "P. Giannozzi et al., J. Phys.:Condens. Matter 21 395502 (2009);
         "P. Giannozzi et al., J. Phys.:Condens. Matter 29 465901 (2017);
          URL http://www.quantum-espresso.org", 
     in publications or presentations arising from this work. More details at
     http://www.quantum-espresso.org/quote

     Parallel version (MPI), running on     2 processors

     MPI processes distributed on     1 nodes
     R & G space division:  proc/nbgrp/npool/nimage =       2
     Reading input from Conv_etot-kp.in
Warning: card &IONS ignored
Warning: card / ignored
Warning: card &CELL ignored
Warning: card / ignored

     Current dimensions of program PWSCF are:
     Max number of different atomic species (ntypx) = 10
     Max number of k-points (npk) =  40000
     Max angular momentum in pseudopotentials (lmaxx) =  3

     Subspace diagonalization in iterative solution of the eigenvalue problem:
     a serial algorithm will be used

 
     Parallelization info
     --------------------
     sticks:   dense  smooth     PW     G-vecs:    dense   smooth      PW
     Min         332     332    110                 4313     4313     791
     Max         333     333    111                 4314     4314     792
     Sum         665     665    221                 8627     8627    1583
 


     bravais-lattice index     =            6
     lattice parameter (alat)  =       9.1100  a.u.
     unit-cell volume          =     506.5589 (a.u.)^3
     number of atoms/cell      =            6
     number of atomic types    =            2
     number of electrons       =        52.00
     number of Kohn-Sham states=           26
     kinetic-energy cutoff     =      25.0000  Ry
     charge density cutoff     =     100.0000  Ry
     convergence threshold     =      1.0E-12
     mixing beta               =       0.7000
     number of iterations used =            8  plain     mixing
     Exchange-correlation      = PBE ( 1  4  3  4 0 0)

     celldm(1)=   9.110000  celldm(2)=   0.000000  celldm(3)=   0.670000
     celldm(4)=   0.000000  celldm(5)=   0.000000  celldm(6)=   0.000000

     crystal axes: (cart. coord. in units of alat)
               a(1) = (   1.000000   0.000000   0.000000 )  
               a(2) = (   0.000000   1.000000   0.000000 )  
               a(3) = (   0.000000   0.000000   0.670000 )  

     reciprocal axes: (cart. coord. in units 2 pi/alat)
               b(1) = (  1.000000  0.000000  0.000000 )  
               b(2) = (  0.000000  1.000000  0.000000 )  
               b(3) = (  0.000000  0.000000  1.492537 )  


     PseudoPot. # 1 for Sn read from file:
     ../../Pseudo_potentials/Sn_PBE.upf
     MD5 check sum: 78e6386ae56e929f0568ae8bf606a80c
     Pseudo is Norm-conserving + core correction, Zval = 14.0
     Generated using ONCVPSP code by D. R. Hamann
     Using radial grid of 1628 points,  6 beta functions with: 
                l(1) =   0
                l(2) =   0
                l(3) =   1
                l(4) =   1
                l(5) =   2
                l(6) =   2

     PseudoPot. # 2 for O  read from file:
     ../../Pseudo_potentials/O_PBE.upf
     MD5 check sum: 3e3f909f7470e8921608ab6b1f57bbae
     Pseudo is Norm-conserving + core correction, Zval =  6.0
     Generated using ONCVPSP code by D. R. Hamann
     Using radial grid of  936 points,  5 beta functions with: 
                l(1) =   0
                l(2) =   0
                l(3) =   1
                l(4) =   1
                l(5) =   2

     atomic species   valence    mass     pseudopotential
        Sn            14.00   118.71000     Sn( 1.00)
        O              6.00    15.99900     O ( 1.00)

      4 Sym. Ops. (no inversion) found



   Cartesian axes

     site n.     atom                  positions (alat units)
         1           Sn  tau(   1) = (   0.0000000   0.0000000   0.0000000  )
         2           Sn  tau(   2) = (   0.5000000   0.5000000   0.3350000  )
         3           O   tau(   3) = (   0.8060000   0.1930000   0.3350000  )
         4           O   tau(   4) = (   0.1930000   0.8060000   0.3350000  )
         5           O   tau(   5) = (   0.3060000   0.3060000   0.0000000  )
         6           O   tau(   6) = (   0.6930000   0.6930000   0.0000000  )

     number of k points=    52
                       cart. coord. in units 2pi/alat
        k(    1) = (   0.0000000   0.0000000   0.0000000), wk =   0.0092593
        k(    2) = (   0.0000000   0.0000000   0.2487562), wk =   0.0185185
        k(    3) = (   0.0000000   0.0000000   0.4975124), wk =   0.0185185
        k(    4) = (   0.0000000   0.0000000  -0.7462687), wk =   0.0092593
        k(    5) = (   0.0000000   0.1666667   0.0000000), wk =   0.0370370
        k(    6) = (   0.0000000   0.1666667   0.2487562), wk =   0.0740741
        k(    7) = (   0.0000000   0.1666667   0.4975124), wk =   0.0740741
        k(    8) = (   0.0000000   0.1666667  -0.7462687), wk =   0.0370370
        k(    9) = (   0.0000000   0.3333333   0.0000000), wk =   0.0370370
        k(   10) = (   0.0000000   0.3333333   0.2487562), wk =   0.0740741
        k(   11) = (   0.0000000   0.3333333   0.4975124), wk =   0.0740741
        k(   12) = (   0.0000000   0.3333333  -0.7462687), wk =   0.0370370
        k(   13) = (   0.0000000  -0.5000000   0.0000000), wk =   0.0185185
        k(   14) = (   0.0000000  -0.5000000   0.2487562), wk =   0.0370370
        k(   15) = (   0.0000000  -0.5000000   0.4975124), wk =   0.0370370
        k(   16) = (   0.0000000  -0.5000000  -0.7462687), wk =   0.0185185
        k(   17) = (   0.1666667   0.1666667   0.0000000), wk =   0.0185185
        k(   18) = (   0.1666667   0.1666667   0.2487562), wk =   0.0370370
        k(   19) = (   0.1666667   0.1666667   0.4975124), wk =   0.0370370
        k(   20) = (   0.1666667   0.1666667  -0.7462687), wk =   0.0185185
        k(   21) = (   0.1666667   0.3333333   0.0000000), wk =   0.0370370
        k(   22) = (   0.1666667   0.3333333   0.2487562), wk =   0.0740741
        k(   23) = (   0.1666667   0.3333333   0.4975124), wk =   0.0740741
        k(   24) = (   0.1666667   0.3333333  -0.7462687), wk =   0.0370370
        k(   25) = (   0.1666667  -0.5000000   0.0000000), wk =   0.0370370
        k(   26) = (   0.1666667  -0.5000000   0.2487562), wk =   0.0740741
        k(   27) = (   0.1666667  -0.5000000   0.4975124), wk =   0.0740741
        k(   28) = (   0.1666667  -0.5000000  -0.7462687), wk =   0.0370370
        k(   29) = (   0.3333333   0.3333333   0.0000000), wk =   0.0185185
        k(   30) = (   0.3333333   0.3333333   0.2487562), wk =   0.0370370
        k(   31) = (   0.3333333   0.3333333   0.4975124), wk =   0.0370370
        k(   32) = (   0.3333333   0.3333333  -0.7462687), wk =   0.0185185
        k(   33) = (   0.3333333  -0.5000000   0.0000000), wk =   0.0370370
        k(   34) = (   0.3333333  -0.5000000   0.2487562), wk =   0.0740741
        k(   35) = (   0.3333333  -0.5000000   0.4975124), wk =   0.0740741
        k(   36) = (   0.3333333  -0.5000000  -0.7462687), wk =   0.0370370
        k(   37) = (  -0.5000000  -0.5000000   0.0000000), wk =   0.0092593
        k(   38) = (  -0.5000000  -0.5000000   0.2487562), wk =   0.0185185
        k(   39) = (  -0.5000000  -0.5000000   0.4975124), wk =   0.0185185
        k(   40) = (  -0.5000000  -0.5000000  -0.7462687), wk =   0.0092593
        k(   41) = (   0.1666667  -0.1666667   0.0000000), wk =   0.0185185
        k(   42) = (   0.1666667  -0.1666667   0.2487562), wk =   0.0370370
        k(   43) = (   0.1666667  -0.1666667   0.4975124), wk =   0.0370370
        k(   44) = (   0.1666667  -0.1666667  -0.7462687), wk =   0.0185185
        k(   45) = (   0.3333333  -0.1666667   0.0000000), wk =   0.0370370
        k(   46) = (   0.3333333  -0.1666667   0.2487562), wk =   0.0740741
        k(   47) = (   0.3333333  -0.1666667   0.4975124), wk =   0.0740741
        k(   48) = (   0.3333333  -0.1666667  -0.7462687), wk =   0.0370370
        k(   49) = (   0.3333333  -0.3333333   0.0000000), wk =   0.0185185
        k(   50) = (   0.3333333  -0.3333333   0.2487562), wk =   0.0370370
        k(   51) = (   0.3333333  -0.3333333   0.4975124), wk =   0.0370370
        k(   52) = (   0.3333333  -0.3333333  -0.7462687), wk =   0.0185185

     Dense  grid:     8627 G-vectors     FFT dimensions: (  30,  30,  20)

     Estimated max dynamical RAM per process >      19.04 MB

     Estimated total dynamical RAM >      38.08 MB

     Check: negative/imaginary core charge=   -0.002394    0.000000

     Initial potential from superposition of free atoms
     Check: negative starting charge=   -0.009566

     starting charge   51.99690, renormalised to   52.00000

     negative rho (up, down):  9.566E-03 0.000E+00
     Starting wfc are   34 randomized atomic wfcs

     total cpu time spent up to now is        1.1 secs

     Self-consistent Calculation

     iteration #  1     ecut=    25.00 Ry     beta= 0.70
     Davidson diagonalization with overlap
     ethr =  1.00E-02,  avg # of iterations =  2.0

     negative rho (up, down):  2.854E-03 0.000E+00

     total cpu time spent up to now is        3.5 secs

     total energy              =    -429.64633930 Ry
     Harris-Foulkes estimate   =    -432.67143782 Ry
     estimated scf accuracy    <       4.16491410 Ry

     iteration #  2     ecut=    25.00 Ry     beta= 0.70
     Davidson diagonalization with overlap
     ethr =  8.01E-03,  avg # of iterations =  2.0

     negative rho (up, down):  8.843E-04 0.000E+00

     total cpu time spent up to now is        5.7 secs

     total energy              =    -430.42028612 Ry
     Harris-Foulkes estimate   =    -430.56162752 Ry
     estimated scf accuracy    <       0.25012126 Ry

     iteration #  3     ecut=    25.00 Ry     beta= 0.70
     Davidson diagonalization with overlap
     ethr =  4.81E-04,  avg # of iterations =  2.9

     negative rho (up, down):  1.611E-04 0.000E+00

     total cpu time spent up to now is        8.0 secs

     total energy              =    -430.46679003 Ry
     Harris-Foulkes estimate   =    -430.48068707 Ry
     estimated scf accuracy    <       0.02978196 Ry

     iteration #  4     ecut=    25.00 Ry     beta= 0.70
     Davidson diagonalization with overlap
     ethr =  5.73E-05,  avg # of iterations =  2.9

     total cpu time spent up to now is       10.3 secs

     total energy              =    -430.47219369 Ry
     Harris-Foulkes estimate   =    -430.47401976 Ry
     estimated scf accuracy    <       0.00356985 Ry

     iteration #  5     ecut=    25.00 Ry     beta= 0.70
     Davidson diagonalization with overlap
     ethr =  6.87E-06,  avg # of iterations =  3.0

     total cpu time spent up to now is       12.7 secs

     total energy              =    -430.47302796 Ry
     Harris-Foulkes estimate   =    -430.47311257 Ry
     estimated scf accuracy    <       0.00017342 Ry

     iteration #  6     ecut=    25.00 Ry     beta= 0.70
     Davidson diagonalization with overlap
     ethr =  3.33E-07,  avg # of iterations =  3.1

     total cpu time spent up to now is       15.1 secs

     total energy              =    -430.47307124 Ry
     Harris-Foulkes estimate   =    -430.47307668 Ry
     estimated scf accuracy    <       0.00001279 Ry

     iteration #  7     ecut=    25.00 Ry     beta= 0.70
     Davidson diagonalization with overlap
     ethr =  2.46E-08,  avg # of iterations =  3.1

     total cpu time spent up to now is       17.4 secs

     total energy              =    -430.47307249 Ry
     Harris-Foulkes estimate   =    -430.47307409 Ry
     estimated scf accuracy    <       0.00000380 Ry

     iteration #  8     ecut=    25.00 Ry     beta= 0.70
     Davidson diagonalization with overlap
     ethr =  7.30E-09,  avg # of iterations =  3.0

     total cpu time spent up to now is       19.6 secs

     total energy              =    -430.47307309 Ry
     Harris-Foulkes estimate   =    -430.47307311 Ry
     estimated scf accuracy    <       0.00000003 Ry

     iteration #  9     ecut=    25.00 Ry     beta= 0.70
     Davidson diagonalization with overlap
     ethr =  6.65E-11,  avg # of iterations =  3.2

     total cpu time spent up to now is       22.4 secs

     total energy              =    -430.47307311 Ry
     Harris-Foulkes estimate   =    -430.47307311 Ry
     estimated scf accuracy    <       0.00000001 Ry

     iteration # 10     ecut=    25.00 Ry     beta= 0.70
     Davidson diagonalization with overlap
     ethr =  2.02E-11,  avg # of iterations =  3.1

     total cpu time spent up to now is       24.7 secs

     total energy              =    -430.47307311 Ry
     Harris-Foulkes estimate   =    -430.47307311 Ry
     estimated scf accuracy    <          3.2E-10 Ry

     iteration # 11     ecut=    25.00 Ry     beta= 0.70
     Davidson diagonalization with overlap
     ethr =  6.22E-13,  avg # of iterations =  3.5

     total cpu time spent up to now is       27.4 secs

     total energy              =    -430.47307311 Ry
     Harris-Foulkes estimate   =    -430.47307311 Ry
     estimated scf accuracy    <          9.6E-11 Ry

     iteration # 12     ecut=    25.00 Ry     beta= 0.70
     Davidson diagonalization with overlap
     ethr =  1.85E-13,  avg # of iterations =  3.1

     total cpu time spent up to now is       29.8 secs

     total energy              =    -430.47307311 Ry
     Harris-Foulkes estimate   =    -430.47307311 Ry
     estimated scf accuracy    <          2.0E-11 Ry

     iteration # 13     ecut=    25.00 Ry     beta= 0.70
     Davidson diagonalization with overlap
     ethr =  1.00E-13,  avg # of iterations =  2.3

     total cpu time spent up to now is       31.8 secs

     End of self-consistent calculation

          k = 0.0000 0.0000 0.0000 (  1065 PWs)   bands (ev):

   -12.1542 -11.5233 -10.2241 -10.2241 -10.2064 -10.1125 -10.0220  -9.9152
    -9.9140  -9.7386  -9.2057  -9.0970  -9.0970  -7.1420   0.9974   5.6157
     5.6158   5.8882   6.9830   7.7944   7.9678   9.0568   9.2054   9.2054
     9.2120   9.2120

          k = 0.0000 0.0000 0.2488 (  1074 PWs)   bands (ev):

   -12.0463 -11.3112 -10.9909 -10.9908 -10.1105 -10.0654 -10.0026  -9.9381
    -9.9380  -9.3920  -9.3254  -9.0306  -9.0306  -7.4733   0.9861   5.5531
     5.5534   5.8577   5.8579   7.1271   7.7388   7.9285   7.9285   9.3653
     9.3653   9.6192

          k = 0.0000 0.0000 0.4975 (  1070 PWs)   bands (ev):

   -11.7329 -11.4302 -11.4300 -10.9234 -10.2353 -10.1475  -9.7013  -9.7012
    -9.4984  -9.4225  -8.9823  -8.3304  -8.0284  -8.0284   1.2269   3.4361
     5.3918   5.9563   5.9564   6.8501   6.8815   6.8816   7.5971   9.1082
     9.1571   9.1573

          k = 0.0000 0.0000-0.7463 (  1058 PWs)   bands (ev):

   -11.5072 -11.5070 -10.9854 -10.9853  -9.6117  -9.6116  -9.4072  -9.4071
    -9.3475  -9.3474  -8.7898  -8.7897  -7.5900  -7.5900   1.9344   1.9345
     5.4790   5.4791   5.9610   5.9610   7.3053   7.3053   8.3871   8.3872
     8.8397   8.8397

          k = 0.0000 0.1667 0.0000 (  1065 PWs)   bands (ev):

   -11.9697 -11.4578 -10.4953 -10.2683 -10.2308  -9.9221  -9.8500  -9.8281
    -9.8156  -9.5750  -9.4705  -9.4552  -9.1951  -7.3504   1.1728   4.9711
     5.8089   5.9742   7.0617   7.6778   7.9011   8.6979   9.2203   9.2252
     9.2533   9.7062

          k = 0.0000 0.1667 0.2488 (  1067 PWs)   bands (ev):

   -11.8541 -11.2840 -11.0188 -10.9823 -10.0103  -9.9409  -9.8774  -9.8271
    -9.7287  -9.6680  -9.1064  -8.9058  -8.7291  -7.5579   1.1985   4.8803
     5.2816   5.8117   6.4679   7.0891   7.5614   8.0891   8.3432   9.2602
     9.2623   9.6531

          k = 0.0000 0.1667 0.4975 (  1073 PWs)   bands (ev):

   -11.7405 -11.5889 -11.2444 -10.8305 -10.1042 -10.0020  -9.8692  -9.7240
    -9.6272  -9.5929  -9.4651  -8.6299  -7.9521  -7.7626   1.3627   3.3090
     4.8875   5.5731   5.9835   6.1774   7.3846   7.8905   7.9272   9.0305
     9.1050   9.1155

          k = 0.0000 0.1667-0.7463 (  1066 PWs)   bands (ev):

   -11.6822 -11.6821 -10.9086 -10.9085  -9.8415  -9.8414  -9.5958  -9.5958
    -9.4569  -9.4569  -9.0922  -9.0921  -7.4780  -7.4780   1.9930   1.9931
     5.0355   5.0356   5.6448   5.6448   7.9919   7.9919   8.4549   8.4550
     8.8442   8.8442

          k = 0.0000 0.3333 0.0000 (  1070 PWs)   bands (ev):

   -11.8164 -11.4156 -10.8205 -10.4640 -10.3933 -10.1561 -10.0135  -9.9357
    -9.7457  -9.6816  -9.6583  -9.5635  -8.7009  -7.6465   1.7384   3.7534
     6.1682   6.2454   7.1631   7.2450   7.4355   8.5731   9.1478   9.1955
     9.2251   9.4749

          k = 0.0000 0.3333 0.2488 (  1069 PWs)   bands (ev):

   -11.6774 -11.3280 -11.1574 -10.9236 -10.1051 -10.0384  -9.8834  -9.8791
    -9.7046  -9.6876  -9.4284  -9.1764  -8.4096  -7.6878   1.7518   3.7029
     5.1351   5.5086   6.9769   7.4155   7.5077   8.4608   8.4845   9.0847
     9.1739   9.3859

          k = 0.0000 0.3333 0.4975 (  1069 PWs)   bands (ev):

   -11.8147 -11.7045 -10.9136 -10.6211 -10.0385  -9.8965  -9.8616  -9.6581
    -9.6410  -9.5346  -9.5062  -9.0119  -7.7517  -7.5231   1.7859   2.9918
     4.4277   4.6638   6.0076   6.0202   8.0621   8.2972   8.5377   8.9601
     9.0607   9.5751

          k = 0.0000 0.3333-0.7463 (  1076 PWs)   bands (ev):

   -11.8908 -11.8906 -10.6566 -10.6565 -10.0450 -10.0449  -9.8455  -9.8454
    -9.6508  -9.6507  -9.5810  -9.5810  -7.3814  -7.3814   2.1215   2.1216
     4.3044   4.3044   5.4661   5.4662   8.3142   8.3142   8.7209   8.7210
     9.2650   9.2651

          k = 0.0000-0.5000 0.0000 (  1078 PWs)   bands (ev):

   -11.6048 -11.6030 -10.7550 -10.7546 -10.4289 -10.4286 -10.0916 -10.0915
   -10.0638 -10.0632  -9.6994  -9.6984  -8.1042  -8.0994   2.6011   2.6104
     6.5851   6.5975   6.6192   6.6222   7.9908   7.9938   9.1092   9.1136
     9.3235   9.3281

          k = 0.0000-0.5000 0.2488 (  1056 PWs)   bands (ev):

   -11.4754 -11.4717 -10.9907 -10.9820  -9.8516  -9.8508  -9.5410  -9.5408
    -9.4677  -9.4649  -9.1429  -9.1385  -7.9229  -7.9216   2.6299   2.6366
     5.2624   5.2688   7.2293   7.2296   8.1504   8.1527   8.8634   8.8653
     9.2617   9.2660

          k = 0.0000-0.5000 0.4975 (  1086 PWs)   bands (ev):

   -11.9377 -11.9359 -10.8527 -10.8408 -10.2289 -10.2263 -10.0029 -10.0007
    -9.8084  -9.7996  -9.7679  -9.7669  -7.7188  -7.7153   2.3751   2.3764
     4.2507   4.2560   5.9211   5.9293   8.2263   8.2298   8.8794   8.8815
     9.3541   9.3557

          k = 0.0000-0.5000-0.7463 (  1096 PWs)   bands (ev):

   -12.1866 -12.1865 -10.7210 -10.7209 -10.3635 -10.3635 -10.2296 -10.2296
   -10.0209 -10.0208  -9.8743  -9.8742  -7.5378  -7.5378   2.1853   2.1854
     3.9362   3.9362   5.3459   5.3460   8.2978   8.2978   8.7423   8.7423
     9.5907   9.5908

          k = 0.1667 0.1667 0.0000 (  1064 PWs)   bands (ev):

   -11.9671 -11.4171 -10.6747 -10.1339 -10.0557  -9.9751  -9.9555  -9.7933
    -9.6684  -9.6246  -9.5186  -9.4485  -9.0677  -7.4683   1.3832   4.7632
     5.6903   6.0728   7.1467   7.4213   7.6346   8.6834   9.1859   9.1944
     9.2167   9.6780

          k = 0.1667 0.1667 0.2488 (  1064 PWs)   bands (ev):

   -11.7769 -11.2145 -11.0642 -10.9993 -10.0456  -9.9687  -9.8582  -9.7524
    -9.6459  -9.3469  -9.2906  -8.9262  -8.6168  -7.5624   1.3771   4.3475
     5.5961   5.9784   6.2358   6.9841   7.5358   8.1217   8.5862   9.2497
     9.3310   9.6617

          k = 0.1667 0.1667 0.4975 (  1069 PWs)   bands (ev):

   -11.7853 -11.4506 -11.3154 -10.6533 -10.1810  -9.8417  -9.8097  -9.7182
    -9.6873  -9.5951  -9.2823  -8.6391  -7.9649  -7.5333   1.4761   3.1355
     4.5853   5.7439   5.8474   6.6906   6.7542   8.0397   8.3769   9.0790
     9.1634   9.2026

          k = 0.1667 0.1667-0.7463 (  1068 PWs)   bands (ev):

   -11.8832 -11.4884 -11.1967 -10.5505  -9.8360  -9.8225  -9.6787  -9.6644
    -9.5858  -9.5407  -9.3339  -9.0220  -7.4707  -7.3858   1.7986   2.2330
     4.4427   5.0852   5.2483   6.4918   7.3146   8.4786   8.5418   8.7249
     8.8617   8.8963

          k = 0.1667 0.3333 0.0000 (  1067 PWs)   bands (ev):

   -11.8796 -11.4602 -10.8741 -10.3110 -10.3025  -9.9596  -9.9088  -9.7947
    -9.7316  -9.6507  -9.6004  -9.5184  -8.6943  -7.7976   1.9468   3.8472
     5.9812   6.3047   7.0736   7.0948   7.4596   8.4345   9.1351   9.1903
     9.2161   9.4360

          k = 0.1667 0.3333 0.2488 (  1066 PWs)   bands (ev):

   -11.7223 -11.3575 -11.1083 -10.9536 -10.0014  -9.9170  -9.8115  -9.7492
    -9.7292  -9.6538  -9.3338  -9.0477  -8.3809  -7.7755   1.8930   3.5518
     5.4003   5.5828   6.8326   7.1276   7.4213   8.4062   8.5968   9.0756
     9.2343   9.5479

          k = 0.1667 0.3333 0.4975 (  1072 PWs)   bands (ev):

   -11.8087 -11.6448 -11.1572 -10.6843 -10.1049  -9.9395  -9.9230  -9.7703
    -9.7322  -9.5318  -9.4386  -8.9663  -7.8524  -7.5398   1.7578   2.6928
     4.4725   5.2073   5.7358   6.1614   7.7968   8.3547   8.6227   9.0046
     9.1703   9.4789

          k = 0.1667 0.3333-0.7463 (  1076 PWs)   bands (ev):

   -12.0325 -11.7943 -10.8982 -10.3327 -10.2345 -10.0517  -9.9916  -9.9735
    -9.6506  -9.6465  -9.4678  -9.1630  -7.5339  -7.3808   1.7338   2.1644
     4.1780   4.7990   5.1688   6.0081   8.0780   8.5900   8.6535   8.8020
     8.9085   9.4811

          k = 0.1667-0.5000 0.0000 (  1068 PWs)   bands (ev):

   -11.6561 -11.6554 -10.6459 -10.6443 -10.2173 -10.2169  -9.8695  -9.8694
    -9.6819  -9.6803  -9.5651  -9.5647  -8.1910  -8.1878   2.8068   2.8154
     6.4582   6.4692   6.6991   6.7017   7.9578   7.9607   9.1619   9.1655
     9.3185   9.3207

          k = 0.1667-0.5000 0.2488 (  1060 PWs)   bands (ev):

   -11.5356 -11.5335 -10.9761 -10.9697  -9.8193  -9.8185  -9.7861  -9.7853
    -9.5763  -9.5760  -9.0156  -9.0114  -8.0436  -8.0434   2.6742   2.6799
     5.4058   5.4113   7.0718   7.0727   8.0145   8.0173   8.8400   8.8413
     9.3525   9.3548

          k = 0.1667-0.5000 0.4975 (  1076 PWs)   bands (ev):

   -11.8344 -11.8327 -10.9617 -10.9535 -10.0652 -10.0645  -9.7635  -9.7610
    -9.6289  -9.6288  -9.5253  -9.5184  -7.7058  -7.7028   2.1893   2.1902
     4.7094   4.7145   5.8161   5.8241   8.3731   8.3762   8.9443   8.9463
     9.2378   9.2391

          k = 0.1667-0.5000-0.7463 (  1080 PWs)   bands (ev):

   -11.9877 -11.9875 -10.6466 -10.6464 -10.0593 -10.0592 -10.0295 -10.0294
    -9.8210  -9.8209  -9.4387  -9.4386  -7.4852  -7.4852   1.8750   1.8751
     4.4635   4.4635   5.3973   5.3974   8.4596   8.4596   8.9282   8.9283
     9.3270   9.3271

          k = 0.3333 0.3333 0.0000 (  1068 PWs)   bands (ev):

   -11.8896 -11.6263 -10.6385 -10.3161 -10.2332 -10.1169 -10.0019  -9.7301
    -9.6338  -9.6242  -9.5895  -9.5064  -8.7382  -7.9771   2.5050   3.8534
     5.7175   6.4426   6.6191   6.9178   7.5742   8.1950   9.1013   9.1060
     9.1515   9.2652

          k = 0.3333 0.3333 0.2488 (  1063 PWs)   bands (ev):

   -11.6476 -11.4422 -11.0214 -10.9918  -9.9116  -9.8871  -9.7028  -9.6461
    -9.6148  -9.6070  -9.2884  -8.8414  -8.5290  -7.8859   2.2902   3.2537
     5.5723   6.0465   6.5621   6.8804   7.1793   8.3054   8.6493   9.1514
     9.1882   9.5280

          k = 0.3333 0.3333 0.4975 (  1075 PWs)   bands (ev):

   -11.8776 -11.5054 -11.4354 -10.9539 -10.1706 -10.0110  -9.8455  -9.7978
    -9.7891  -9.5471  -9.5014  -8.8346  -7.9048  -7.7216   1.7556   2.2257
     5.0243   5.4358   5.5100   6.7097   7.1232   8.5801   8.6373   9.1029
     9.1848   9.3136

          k = 0.3333 0.3333-0.7463 (  1084 PWs)   bands (ev):

   -12.1419 -11.6884 -11.3046 -10.6835 -10.3073 -10.1813  -9.9572  -9.8864
    -9.8831  -9.7985  -9.6679  -9.1112  -7.6720  -7.5861   1.4640   1.7590
     4.8240   4.8811   4.8911   7.0242   7.2469   8.6943   8.7317   8.8792
     9.0412   9.2926

          k = 0.3333-0.5000 0.0000 (  1066 PWs)   bands (ev):

   -11.7584 -11.7576 -10.3337 -10.3313 -10.0842 -10.0840  -9.8123  -9.8116
    -9.7186  -9.7185  -9.6704  -9.6686  -8.2954  -8.2936   3.2612   3.2671
     6.0586   6.0661   6.6974   6.6985   7.8189   7.8204   9.1627   9.1634
     9.1788   9.1801

          k = 0.3333-0.5000 0.2488 (  1072 PWs)   bands (ev):

   -11.7141 -11.7139 -11.0154 -11.0136 -10.1226 -10.1218  -9.7858  -9.7847
    -9.6480  -9.6470  -9.1954  -9.1900  -8.3211  -8.3190   2.7949   2.7983
     5.7530   5.7551   6.7876   6.7928   7.5225   7.5268   8.8962   8.8971
     9.3494   9.3519

          k = 0.3333-0.5000 0.4975 (  1066 PWs)   bands (ev):

   -11.6542 -11.6517 -11.0643 -11.0590  -9.9772  -9.9769  -9.6844  -9.6841
    -9.6002  -9.5997  -8.8693  -8.8641  -7.8712  -7.8683   1.9084   1.9085
     5.3806   5.3830   6.0081   6.0118   8.0476   8.0482   8.9750   8.9777
     9.2739   9.2765

          k = 0.3333-0.5000-0.7463 (  1068 PWs)   bands (ev):

   -11.8513 -11.8511 -10.8130 -10.8129  -9.9822  -9.9821  -9.7553  -9.7553
    -9.7145  -9.7145  -8.8765  -8.8763  -7.5918  -7.5918   1.4651   1.4652
     4.7778   4.7778   6.0542   6.0542   8.5190   8.5190   8.8881   8.8882
     9.1616   9.1616

          k =-0.5000-0.5000 0.0000 (  1084 PWs)   bands (ev):

   -11.8390 -11.8389 -10.7718 -10.7718 -10.1999 -10.1999 -10.0830 -10.0814
   -10.0324 -10.0320  -9.9988  -9.9977  -8.3498  -8.3497   3.5448   3.5449
     5.8193   5.8194   6.6641   6.6643   7.7016   7.7016   9.0163   9.0163
     9.0935   9.0936

          k =-0.5000-0.5000 0.2488 (  1064 PWs)   bands (ev):

   -11.6722 -11.6721 -10.8891 -10.8890 -10.0629 -10.0628  -9.6333  -9.6333
    -9.5918  -9.5918  -8.6608  -8.6601  -8.6162  -8.6156   2.8869   2.8869
     6.0338   6.0338   6.8987   6.8997   7.0022   7.0032   9.1564   9.1565
     9.2184   9.2186

          k =-0.5000-0.5000 0.4975 (  1080 PWs)   bands (ev):

   -11.6432 -11.6430 -11.4185 -11.4184 -10.0667 -10.0666  -9.9610  -9.9609
    -9.9209  -9.9209  -8.9255  -8.9254  -8.0748  -8.0747   1.7894   1.7894
     5.3321   5.3322   6.7403   6.7403   7.2070   7.2070   9.1039   9.1071
     9.1094   9.1126

          k =-0.5000-0.5000-0.7463 (  1072 PWs)   bands (ev):

   -11.6948 -11.6946 -11.1541 -11.1540 -10.0333 -10.0332  -9.7684  -9.7683
    -9.6725  -9.6724  -9.0151  -9.0149  -7.6477  -7.6477   1.3098   1.3099
     4.7548   4.7548   7.2444   7.2444   7.2740   7.2740   8.8982   8.8983
     9.2170   9.2171

          k = 0.1667-0.1667 0.0000 (  1064 PWs)   bands (ev):

   -11.9671 -11.4171 -10.6746 -10.1338 -10.0567  -9.9752  -9.9545  -9.7933
    -9.6684  -9.6247  -9.5186  -9.4485  -9.0678  -7.4683   1.3832   4.7632
     5.6903   6.0728   7.1467   7.4213   7.6346   8.6834   9.1858   9.1944
     9.2167   9.6781

          k = 0.1667-0.1667 0.2488 (  1064 PWs)   bands (ev):

   -11.7769 -11.2143 -11.0644 -10.9993 -10.0456  -9.9687  -9.8582  -9.7523
    -9.6459  -9.3469  -9.2906  -8.9262  -8.6168  -7.5624   1.3771   4.3475
     5.5962   5.9783   6.2358   6.9841   7.5358   8.1217   8.5862   9.2497
     9.3310   9.6617

          k = 0.1667-0.1667 0.4975 (  1069 PWs)   bands (ev):

   -11.7852 -11.4508 -11.3154 -10.6532 -10.1811  -9.8417  -9.8096  -9.7182
    -9.6873  -9.5950  -9.2824  -8.6390  -7.9649  -7.5333   1.4762   3.1354
     4.5853   5.7439   5.8474   6.6905   6.7542   8.0396   8.3769   9.0791
     9.1631   9.2029

          k = 0.1667-0.1667-0.7463 (  1068 PWs)   bands (ev):

   -11.8831 -11.4886 -11.1968 -10.5503  -9.8360  -9.8225  -9.6788  -9.6643
    -9.5860  -9.5406  -9.3338  -9.0218  -7.4706  -7.3859   1.7987   2.2329
     4.4427   5.0852   5.2484   6.4917   7.3146   8.4786   8.5418   8.7249
     8.8615   8.8965

          k = 0.3333-0.1667 0.0000 (  1067 PWs)   bands (ev):

   -11.8796 -11.4601 -10.8741 -10.3112 -10.3025  -9.9597  -9.9086  -9.7947
    -9.7317  -9.6507  -9.6004  -9.5184  -8.6943  -7.7976   1.9468   3.8472
     5.9812   6.3047   7.0736   7.0949   7.4596   8.4345   9.1351   9.1902
     9.2161   9.4360

          k = 0.3333-0.1667 0.2488 (  1066 PWs)   bands (ev):

   -11.7224 -11.3574 -11.1084 -10.9537 -10.0014  -9.9171  -9.8114  -9.7493
    -9.7291  -9.6538  -9.3338  -9.0477  -8.3808  -7.7755   1.8930   3.5518
     5.4003   5.5828   6.8325   7.1277   7.4212   8.4061   8.5968   9.0756
     9.2343   9.5479

          k = 0.3333-0.1667 0.4975 (  1072 PWs)   bands (ev):

   -11.8086 -11.6449 -11.1573 -10.6841 -10.1049  -9.9395  -9.9230  -9.7703
    -9.7322  -9.5318  -9.4386  -8.9662  -7.8524  -7.5399   1.7578   2.6927
     4.4725   5.2073   5.7359   6.1614   7.7968   8.3547   8.6227   9.0047
     9.1703   9.4789

          k = 0.3333-0.1667-0.7463 (  1076 PWs)   bands (ev):

   -12.0323 -11.7945 -10.8983 -10.3314 -10.2360 -10.0518  -9.9916  -9.9735
    -9.6506  -9.6465  -9.4677  -9.1629  -7.5339  -7.3808   1.7339   2.1643
     4.1779   4.7990   5.1689   6.0080   8.0780   8.5900   8.6535   8.8021
     8.9084   9.4812

          k = 0.3333-0.3333 0.0000 (  1068 PWs)   bands (ev):

   -11.8896 -11.6263 -10.6384 -10.3161 -10.2333 -10.1178 -10.0010  -9.7300
    -9.6339  -9.6243  -9.5896  -9.5064  -8.7382  -7.9771   2.5050   3.8534
     5.7175   6.4426   6.6191   6.9179   7.5742   8.1949   9.1013   9.1060
     9.1515   9.2652

          k = 0.3333-0.3333 0.2488 (  1063 PWs)   bands (ev):

   -11.6477 -11.4420 -11.0216 -10.9916  -9.9117  -9.8870  -9.7029  -9.6461
    -9.6149  -9.6068  -9.2884  -8.8414  -8.5289  -7.8860   2.2902   3.2537
     5.5723   6.0465   6.5621   6.8805   7.1792   8.3055   8.6493   9.1514
     9.1882   9.5280

          k = 0.3333-0.3333 0.4975 (  1075 PWs)   bands (ev):

   -11.8775 -11.5057 -11.4353 -10.9538 -10.1706 -10.0110  -9.8454  -9.7982
    -9.7886  -9.5472  -9.5014  -8.8345  -7.9048  -7.7216   1.7557   2.2257
     5.0243   5.4358   5.5101   6.7097   7.1231   8.5800   8.6375   9.1029
     9.1849   9.3136

          k = 0.3333-0.3333-0.7463 (  1084 PWs)   bands (ev):

   -12.1418 -11.6886 -11.3046 -10.6834 -10.3073 -10.1814  -9.9572  -9.8864
    -9.8831  -9.7985  -9.6680  -9.1111  -7.6720  -7.5861   1.4641   1.7588
     4.8240   4.8768   4.8955   7.0241   7.2469   8.6943   8.7317   8.8793
     9.0412   9.2927

     highest occupied level (ev):     9.7062

!    total energy              =    -430.47307311 Ry
     Harris-Foulkes estimate   =    -430.47307311 Ry
     estimated scf accuracy    <          1.1E-13 Ry

     The total energy is the sum of the following terms:

     one-electron contribution =     -96.67815585 Ry
     hartree contribution      =      85.52870676 Ry
     xc contribution           =    -116.84228568 Ry
     ewald contribution        =    -302.48133834 Ry

     convergence has been achieved in  13 iterations

     Writing output data file SnO2.save
 
     init_run     :      0.88s CPU      0.91s WALL (       1 calls)
     electrons    :     29.46s CPU     30.67s WALL (       1 calls)

     Called by init_run:
     wfcinit      :      0.81s CPU      0.84s WALL (       1 calls)
     potinit      :      0.02s CPU      0.02s WALL (       1 calls)
     hinit0       :      0.04s CPU      0.05s WALL (       1 calls)

     Called by electrons:
     c_bands      :     26.23s CPU     27.28s WALL (      13 calls)
     sum_band     :      3.15s CPU      3.27s WALL (      13 calls)
     v_of_rho     :      0.07s CPU      0.07s WALL (      14 calls)
     mix_rho      :      0.01s CPU      0.01s WALL (      13 calls)

     Called by c_bands:
     init_us_2    :      0.09s CPU      0.45s WALL (    1404 calls)
     cegterg      :     24.15s CPU     24.94s WALL (     676 calls)

     Called by sum_band:

     Called by *egterg:
     h_psi        :     18.15s CPU     19.25s WALL (    2661 calls)
     g_psi        :      0.03s CPU      0.20s WALL (    1933 calls)
     cdiaghg      :      3.49s CPU      3.47s WALL (    2609 calls)

     Called by h_psi:
     h_psi:pot    :     18.12s CPU     19.16s WALL (    2661 calls)
     h_psi:calbec :      1.23s CPU      1.24s WALL (    2661 calls)
     vloc_psi     :     16.68s CPU     16.75s WALL (    2661 calls)
     add_vuspsi   :      0.21s CPU      1.17s WALL (    2661 calls)

     General routines
     calbec       :      1.23s CPU      1.23s WALL (    2661 calls)
     fft          :      0.04s CPU      0.03s WALL (     141 calls)
     ffts         :      0.00s CPU      0.00s WALL (      13 calls)
     fftw         :     19.62s CPU     18.38s WALL (  116658 calls)
 
     Parallel routines
     fft_scatt_xy :      0.14s CPU      1.53s WALL (  116812 calls)
     fft_scatt_yz :     17.87s CPU      2.73s WALL (  116812 calls)
 
     PWSCF        :    30.59s CPU        33.54s WALL

 
   This run was terminated on:  12:24:42  21Apr2018            

=------------------------------------------------------------------------------=
   JOB DONE.
=------------------------------------------------------------------------------=
