
     Program PWSCF v.6.2.2 starts on 21Apr2018 at 12:23:33 

     This program is part of the open-source Quantum ESPRESSO suite
     for quantum simulation of materials; please cite
         "P. Giannozzi et al., J. Phys.:Condens. Matter 21 395502 (2009);
         "P. Giannozzi et al., J. Phys.:Condens. Matter 29 465901 (2017);
          URL http://www.quantum-espresso.org", 
     in publications or presentations arising from this work. More details at
     http://www.quantum-espresso.org/quote

     Parallel version (MPI), running on     2 processors

     MPI processes distributed on     1 nodes
     R & G space division:  proc/nbgrp/npool/nimage =       2
     Reading input from Conv_etot-kp.in
Warning: card &IONS ignored
Warning: card / ignored
Warning: card &CELL ignored
Warning: card / ignored

     Current dimensions of program PWSCF are:
     Max number of different atomic species (ntypx) = 10
     Max number of k-points (npk) =  40000
     Max angular momentum in pseudopotentials (lmaxx) =  3

     Subspace diagonalization in iterative solution of the eigenvalue problem:
     a serial algorithm will be used

 
     Parallelization info
     --------------------
     sticks:   dense  smooth     PW     G-vecs:    dense   smooth      PW
     Min         332     332     84                 4313     4313     532
     Max         333     333     85                 4314     4314     533
     Sum         665     665    169                 8627     8627    1065
 


     bravais-lattice index     =            6
     lattice parameter (alat)  =       9.1100  a.u.
     unit-cell volume          =     506.5589 (a.u.)^3
     number of atoms/cell      =            6
     number of atomic types    =            2
     number of electrons       =        52.00
     number of Kohn-Sham states=           26
     kinetic-energy cutoff     =      25.0000  Ry
     charge density cutoff     =     100.0000  Ry
     convergence threshold     =      1.0E-12
     mixing beta               =       0.7000
     number of iterations used =            8  plain     mixing
     Exchange-correlation      = PBE ( 1  4  3  4 0 0)

     celldm(1)=   9.110000  celldm(2)=   0.000000  celldm(3)=   0.670000
     celldm(4)=   0.000000  celldm(5)=   0.000000  celldm(6)=   0.000000

     crystal axes: (cart. coord. in units of alat)
               a(1) = (   1.000000   0.000000   0.000000 )  
               a(2) = (   0.000000   1.000000   0.000000 )  
               a(3) = (   0.000000   0.000000   0.670000 )  

     reciprocal axes: (cart. coord. in units 2 pi/alat)
               b(1) = (  1.000000  0.000000  0.000000 )  
               b(2) = (  0.000000  1.000000  0.000000 )  
               b(3) = (  0.000000  0.000000  1.492537 )  


     PseudoPot. # 1 for Sn read from file:
     ../../Pseudo_potentials/Sn_PBE.upf
     MD5 check sum: 78e6386ae56e929f0568ae8bf606a80c
     Pseudo is Norm-conserving + core correction, Zval = 14.0
     Generated using ONCVPSP code by D. R. Hamann
     Using radial grid of 1628 points,  6 beta functions with: 
                l(1) =   0
                l(2) =   0
                l(3) =   1
                l(4) =   1
                l(5) =   2
                l(6) =   2

     PseudoPot. # 2 for O  read from file:
     ../../Pseudo_potentials/O_PBE.upf
     MD5 check sum: 3e3f909f7470e8921608ab6b1f57bbae
     Pseudo is Norm-conserving + core correction, Zval =  6.0
     Generated using ONCVPSP code by D. R. Hamann
     Using radial grid of  936 points,  5 beta functions with: 
                l(1) =   0
                l(2) =   0
                l(3) =   1
                l(4) =   1
                l(5) =   2

     atomic species   valence    mass     pseudopotential
        Sn            14.00   118.71000     Sn( 1.00)
        O              6.00    15.99900     O ( 1.00)

      4 Sym. Ops. (no inversion) found



   Cartesian axes

     site n.     atom                  positions (alat units)
         1           Sn  tau(   1) = (   0.0000000   0.0000000   0.0000000  )
         2           Sn  tau(   2) = (   0.5000000   0.5000000   0.3350000  )
         3           O   tau(   3) = (   0.8060000   0.1930000   0.3350000  )
         4           O   tau(   4) = (   0.1930000   0.8060000   0.3350000  )
         5           O   tau(   5) = (   0.3060000   0.3060000   0.0000000  )
         6           O   tau(   6) = (   0.6930000   0.6930000   0.0000000  )

     number of k points=     1
                       cart. coord. in units 2pi/alat
        k(    1) = (   0.0000000   0.0000000   0.0000000), wk =   2.0000000

     Dense  grid:     8627 G-vectors     FFT dimensions: (  30,  30,  20)

     Estimated max dynamical RAM per process >       8.03 MB

     Estimated total dynamical RAM >      16.05 MB

     Check: negative/imaginary core charge=   -0.002394    0.000000

     Initial potential from superposition of free atoms
     Check: negative starting charge=   -0.009566

     starting charge   51.99690, renormalised to   52.00000

     negative rho (up, down):  9.566E-03 0.000E+00
     Starting wfc are   34 randomized atomic wfcs

     total cpu time spent up to now is        1.4 secs

     Self-consistent Calculation

     iteration #  1     ecut=    25.00 Ry     beta= 0.70
     Davidson diagonalization with overlap
     ethr =  1.00E-02,  avg # of iterations =  2.0

     negative rho (up, down):  2.850E-03 0.000E+00

     total cpu time spent up to now is        1.4 secs

     total energy              =    -428.33562613 Ry
     Harris-Foulkes estimate   =    -431.79961662 Ry
     estimated scf accuracy    <       4.70937142 Ry

     iteration #  2     ecut=    25.00 Ry     beta= 0.70
     Davidson diagonalization with overlap
     ethr =  9.06E-03,  avg # of iterations =  5.0

     negative rho (up, down):  1.142E-03 0.000E+00

     total cpu time spent up to now is        1.5 secs

     total energy              =    -429.33696064 Ry
     Harris-Foulkes estimate   =    -429.89137253 Ry
     estimated scf accuracy    <       0.88551773 Ry

     iteration #  3     ecut=    25.00 Ry     beta= 0.70
     Davidson diagonalization with overlap
     ethr =  1.70E-03,  avg # of iterations =  3.0

     negative rho (up, down):  2.399E-04 0.000E+00

     total cpu time spent up to now is        1.5 secs

     total energy              =    -429.51519057 Ry
     Harris-Foulkes estimate   =    -429.55357265 Ry
     estimated scf accuracy    <       0.08259710 Ry

     iteration #  4     ecut=    25.00 Ry     beta= 0.70
     Davidson diagonalization with overlap
     ethr =  1.59E-04,  avg # of iterations =  2.0

     total cpu time spent up to now is        1.6 secs

     total energy              =    -429.52578459 Ry
     Harris-Foulkes estimate   =    -429.53529218 Ry
     estimated scf accuracy    <       0.01617130 Ry

     iteration #  5     ecut=    25.00 Ry     beta= 0.70
     Davidson diagonalization with overlap
     ethr =  3.11E-05,  avg # of iterations =  6.0

     total cpu time spent up to now is        1.6 secs

     total energy              =    -429.54882397 Ry
     Harris-Foulkes estimate   =    -429.58300533 Ry
     estimated scf accuracy    <       0.64849619 Ry

     iteration #  6     ecut=    25.00 Ry     beta= 0.70
     Davidson diagonalization with overlap
     ethr =  3.11E-05,  avg # of iterations =  3.0

     total cpu time spent up to now is        1.7 secs

     total energy              =    -429.53314412 Ry
     Harris-Foulkes estimate   =    -429.54986483 Ry
     estimated scf accuracy    <       0.54490412 Ry

     iteration #  7     ecut=    25.00 Ry     beta= 0.70
     Davidson diagonalization with overlap
     ethr =  3.11E-05,  avg # of iterations =  1.0

     total cpu time spent up to now is        1.7 secs

     total energy              =    -429.38218343 Ry
     Harris-Foulkes estimate   =    -429.53325065 Ry
     estimated scf accuracy    <       0.50620848 Ry

     iteration #  8     ecut=    25.00 Ry     beta= 0.70
     Davidson diagonalization with overlap
     ethr =  3.11E-05,  avg # of iterations =  4.0

     total cpu time spent up to now is        1.8 secs

     total energy              =    -429.33918738 Ry
     Harris-Foulkes estimate   =    -429.40113276 Ry
     estimated scf accuracy    <       0.13043396 Ry

     iteration #  9     ecut=    25.00 Ry     beta= 0.70
     Davidson diagonalization with overlap
     ethr =  3.11E-05,  avg # of iterations =  6.0

     total cpu time spent up to now is        1.8 secs

     total energy              =    -429.89615330 Ry
     Harris-Foulkes estimate   =    -429.90994321 Ry
     estimated scf accuracy    <       1.73680091 Ry

     iteration # 10     ecut=    25.00 Ry     beta= 0.70
     Davidson diagonalization with overlap
     ethr =  3.11E-05,  avg # of iterations =  1.0

     total cpu time spent up to now is        1.9 secs

     total energy              =    -429.93633995 Ry
     Harris-Foulkes estimate   =    -429.89621406 Ry
     estimated scf accuracy    <       1.70025025 Ry

     iteration # 11     ecut=    25.00 Ry     beta= 0.70
     Davidson diagonalization with overlap
     ethr =  3.11E-05,  avg # of iterations =  1.0

     total cpu time spent up to now is        1.9 secs

     total energy              =    -429.81366362 Ry
     Harris-Foulkes estimate   =    -429.93663979 Ry
     estimated scf accuracy    <       1.80010814 Ry

     iteration # 12     ecut=    25.00 Ry     beta= 0.70
     Davidson diagonalization with overlap
     ethr =  3.11E-05,  avg # of iterations =  3.0

     total cpu time spent up to now is        2.0 secs

     total energy              =    -429.71234973 Ry
     Harris-Foulkes estimate   =    -429.81742942 Ry
     estimated scf accuracy    <       1.43834953 Ry

     iteration # 13     ecut=    25.00 Ry     beta= 0.70
     Davidson diagonalization with overlap
     ethr =  3.11E-05,  avg # of iterations =  4.0

     total cpu time spent up to now is        2.0 secs

     total energy              =    -429.46515007 Ry
     Harris-Foulkes estimate   =    -429.71658696 Ry
     estimated scf accuracy    <       1.11819103 Ry

     iteration # 14     ecut=    25.00 Ry     beta= 0.70
     Davidson diagonalization with overlap
     ethr =  3.11E-05,  avg # of iterations =  7.0

     total cpu time spent up to now is        2.1 secs

     total energy              =    -429.56446853 Ry
     Harris-Foulkes estimate   =    -429.61335848 Ry
     estimated scf accuracy    <       0.18977701 Ry

     iteration # 15     ecut=    25.00 Ry     beta= 0.70
     Davidson diagonalization with overlap
     ethr =  3.11E-05,  avg # of iterations =  4.0

     total cpu time spent up to now is        2.1 secs

     total energy              =    -429.53278567 Ry
     Harris-Foulkes estimate   =    -429.57340691 Ry
     estimated scf accuracy    <       0.11449136 Ry

     iteration # 16     ecut=    25.00 Ry     beta= 0.70
     Davidson diagonalization with overlap
     ethr =  3.11E-05,  avg # of iterations =  6.0

     total cpu time spent up to now is        2.2 secs

     total energy              =    -429.46518768 Ry
     Harris-Foulkes estimate   =    -429.56131311 Ry
     estimated scf accuracy    <       0.63483840 Ry

     iteration # 17     ecut=    25.00 Ry     beta= 0.70
     Davidson diagonalization with overlap
     ethr =  3.11E-05,  avg # of iterations =  4.0

     total cpu time spent up to now is        2.3 secs

     total energy              =    -429.40135927 Ry
     Harris-Foulkes estimate   =    -429.47236113 Ry
     estimated scf accuracy    <       0.35746866 Ry

     iteration # 18     ecut=    25.00 Ry     beta= 0.70
     Davidson diagonalization with overlap
     ethr =  3.11E-05,  avg # of iterations =  4.0

     total cpu time spent up to now is        2.3 secs

     total energy              =    -429.38713847 Ry
     Harris-Foulkes estimate   =    -429.40770728 Ry
     estimated scf accuracy    <       0.16080321 Ry

     iteration # 19     ecut=    25.00 Ry     beta= 0.70
     Davidson diagonalization with overlap
     ethr =  3.11E-05,  avg # of iterations =  3.0

     total cpu time spent up to now is        2.4 secs

     total energy              =    -429.38581228 Ry
     Harris-Foulkes estimate   =    -429.38811638 Ry
     estimated scf accuracy    <       0.10478135 Ry

     iteration # 20     ecut=    25.00 Ry     beta= 0.70
     Davidson diagonalization with overlap
     ethr =  3.11E-05,  avg # of iterations =  1.0

     total cpu time spent up to now is        2.4 secs

     total energy              =    -429.37951887 Ry
     Harris-Foulkes estimate   =    -429.38586647 Ry
     estimated scf accuracy    <       0.09869960 Ry

     iteration # 21     ecut=    25.00 Ry     beta= 0.70
     Davidson diagonalization with overlap
     ethr =  3.11E-05,  avg # of iterations =  1.0

     total cpu time spent up to now is        2.4 secs

     total energy              =    -429.37604355 Ry
     Harris-Foulkes estimate   =    -429.37973894 Ry
     estimated scf accuracy    <       0.08021953 Ry

     iteration # 22     ecut=    25.00 Ry     beta= 0.70
     Davidson diagonalization with overlap
     ethr =  3.11E-05,  avg # of iterations =  1.0

     total cpu time spent up to now is        2.5 secs

     total energy              =    -429.48327090 Ry
     Harris-Foulkes estimate   =    -429.37615841 Ry
     estimated scf accuracy    <       0.07010253 Ry

     iteration # 23     ecut=    25.00 Ry     beta= 0.70
     Davidson diagonalization with overlap
     ethr =  3.11E-05,  avg # of iterations =  4.0

     total cpu time spent up to now is        2.5 secs

     total energy              =    -429.33858397 Ry
     Harris-Foulkes estimate   =    -429.50457662 Ry
     estimated scf accuracy    <       0.42698319 Ry

     iteration # 24     ecut=    25.00 Ry     beta= 0.70
     Davidson diagonalization with overlap
     ethr =  3.11E-05,  avg # of iterations =  6.0

     total cpu time spent up to now is        2.6 secs

     total energy              =    -429.74302495 Ry
     Harris-Foulkes estimate   =    -429.79793038 Ry
     estimated scf accuracy    <       1.37256063 Ry

     iteration # 25     ecut=    25.00 Ry     beta= 0.70
     Davidson diagonalization with overlap
     ethr =  3.11E-05,  avg # of iterations =  3.0

     total cpu time spent up to now is        2.6 secs

     total energy              =    -429.73865846 Ry
     Harris-Foulkes estimate   =    -429.74470604 Ry
     estimated scf accuracy    <       1.21957900 Ry

     iteration # 26     ecut=    25.00 Ry     beta= 0.70
     Davidson diagonalization with overlap
     ethr =  3.11E-05,  avg # of iterations =  1.0

     total cpu time spent up to now is        2.7 secs

     total energy              =    -429.74559586 Ry
     Harris-Foulkes estimate   =    -429.73870564 Ry
     estimated scf accuracy    <       1.20618460 Ry

     iteration # 27     ecut=    25.00 Ry     beta= 0.70
     Davidson diagonalization with overlap
     ethr =  3.11E-05,  avg # of iterations =  1.0

     total cpu time spent up to now is        2.7 secs

     total energy              =    -429.74706807 Ry
     Harris-Foulkes estimate   =    -429.74561422 Ry
     estimated scf accuracy    <       1.22022338 Ry

     iteration # 28     ecut=    25.00 Ry     beta= 0.70
     Davidson diagonalization with overlap
     ethr =  3.11E-05,  avg # of iterations =  1.0

     total cpu time spent up to now is        2.8 secs

     total energy              =    -429.75500571 Ry
     Harris-Foulkes estimate   =    -429.74708140 Ry
     estimated scf accuracy    <       1.22666889 Ry

     iteration # 29     ecut=    25.00 Ry     beta= 0.70
     Davidson diagonalization with overlap
     ethr =  3.11E-05,  avg # of iterations =  1.0

     total cpu time spent up to now is        2.8 secs

     total energy              =    -429.77834731 Ry
     Harris-Foulkes estimate   =    -429.75504735 Ry
     estimated scf accuracy    <       1.24915788 Ry

     iteration # 30     ecut=    25.00 Ry     beta= 0.70
     Davidson diagonalization with overlap
     ethr =  3.11E-05,  avg # of iterations =  1.0

     total cpu time spent up to now is        2.8 secs

     total energy              =    -429.78977967 Ry
     Harris-Foulkes estimate   =    -429.77856745 Ry
     estimated scf accuracy    <       1.31943464 Ry

     iteration # 31     ecut=    25.00 Ry     beta= 0.70
     Davidson diagonalization with overlap
     ethr =  3.11E-05,  avg # of iterations =  1.0

     total cpu time spent up to now is        2.9 secs

     total energy              =    -429.41067040 Ry
     Harris-Foulkes estimate   =    -429.78986426 Ry
     estimated scf accuracy    <       1.34732670 Ry

     iteration # 32     ecut=    25.00 Ry     beta= 0.70
     Davidson diagonalization with overlap
     ethr =  3.11E-05,  avg # of iterations =  6.0

     total cpu time spent up to now is        3.0 secs

     total energy              =    -429.69447821 Ry
     Harris-Foulkes estimate   =    -429.61391503 Ry
     estimated scf accuracy    <       0.21944634 Ry

     iteration # 33     ecut=    25.00 Ry     beta= 0.70
     Davidson diagonalization with overlap
     ethr =  3.11E-05,  avg # of iterations =  5.0

     total cpu time spent up to now is        3.0 secs

     total energy              =    -429.64115974 Ry
     Harris-Foulkes estimate   =    -430.03712626 Ry
     estimated scf accuracy    <       2.18054897 Ry

     iteration # 34     ecut=    25.00 Ry     beta= 0.70
     Davidson diagonalization with overlap
     ethr =  3.11E-05,  avg # of iterations =  4.0

     total cpu time spent up to now is        3.1 secs

     total energy              =    -429.57408457 Ry
     Harris-Foulkes estimate   =    -429.68350907 Ry
     estimated scf accuracy    <       1.04234093 Ry

     iteration # 35     ecut=    25.00 Ry     beta= 0.70
     Davidson diagonalization with overlap
     ethr =  3.11E-05,  avg # of iterations =  4.0

     total cpu time spent up to now is        3.1 secs

     total energy              =    -429.42040494 Ry
     Harris-Foulkes estimate   =    -429.57955189 Ry
     estimated scf accuracy    <       0.71308557 Ry

     iteration # 36     ecut=    25.00 Ry     beta= 0.70
     Davidson diagonalization with overlap
     ethr =  3.11E-05,  avg # of iterations =  4.0

     total cpu time spent up to now is        3.2 secs

     total energy              =    -429.41591024 Ry
     Harris-Foulkes estimate   =    -429.43980982 Ry
     estimated scf accuracy    <       0.26626382 Ry

     iteration # 37     ecut=    25.00 Ry     beta= 0.70
     Davidson diagonalization with overlap
     ethr =  3.11E-05,  avg # of iterations =  3.0

     total cpu time spent up to now is        3.2 secs

     total energy              =    -429.40915700 Ry
     Harris-Foulkes estimate   =    -429.41689464 Ry
     estimated scf accuracy    <       0.19465720 Ry

     iteration # 38     ecut=    25.00 Ry     beta= 0.70
     Davidson diagonalization with overlap
     ethr =  3.11E-05,  avg # of iterations =  1.0

     total cpu time spent up to now is        3.3 secs

     total energy              =    -429.39020453 Ry
     Harris-Foulkes estimate   =    -429.40928233 Ry
     estimated scf accuracy    <       0.17373532 Ry

     iteration # 39     ecut=    25.00 Ry     beta= 0.70
     Davidson diagonalization with overlap
     ethr =  3.11E-05,  avg # of iterations =  3.0

     total cpu time spent up to now is        3.3 secs

     total energy              =    -429.37745463 Ry
     Harris-Foulkes estimate   =    -429.39138415 Ry
     estimated scf accuracy    <       0.11421990 Ry

     iteration # 40     ecut=    25.00 Ry     beta= 0.70
     Davidson diagonalization with overlap
     ethr =  3.11E-05,  avg # of iterations =  3.0

     total cpu time spent up to now is        3.4 secs

     total energy              =    -429.34150312 Ry
     Harris-Foulkes estimate   =    -429.37826593 Ry
     estimated scf accuracy    <       0.07308365 Ry

     iteration # 41     ecut=    25.00 Ry     beta= 0.70
     Davidson diagonalization with overlap
     ethr =  3.11E-05,  avg # of iterations =  5.0

     total cpu time spent up to now is        3.4 secs

     total energy              =    -429.76297895 Ry
     Harris-Foulkes estimate   =    -429.92894664 Ry
     estimated scf accuracy    <       1.79452765 Ry

     iteration # 42     ecut=    25.00 Ry     beta= 0.70
     Davidson diagonalization with overlap
     ethr =  3.11E-05,  avg # of iterations =  4.0

     total cpu time spent up to now is        3.5 secs

     total energy              =    -429.71342595 Ry
     Harris-Foulkes estimate   =    -429.76984924 Ry
     estimated scf accuracy    <       1.29952182 Ry

     iteration # 43     ecut=    25.00 Ry     beta= 0.70
     Davidson diagonalization with overlap
     ethr =  3.11E-05,  avg # of iterations =  3.0

     total cpu time spent up to now is        3.5 secs

     total energy              =    -429.70862991 Ry
     Harris-Foulkes estimate   =    -429.71451469 Ry
     estimated scf accuracy    <       1.12690499 Ry

     iteration # 44     ecut=    25.00 Ry     beta= 0.70
     Davidson diagonalization with overlap
     ethr =  3.11E-05,  avg # of iterations =  1.0

     total cpu time spent up to now is        3.6 secs

     total energy              =    -429.71410082 Ry
     Harris-Foulkes estimate   =    -429.70865396 Ry
     estimated scf accuracy    <       1.11246424 Ry

     iteration # 45     ecut=    25.00 Ry     beta= 0.70
     Davidson diagonalization with overlap
     ethr =  3.11E-05,  avg # of iterations =  1.0

     total cpu time spent up to now is        3.6 secs

     total energy              =    -429.71254690 Ry
     Harris-Foulkes estimate   =    -429.71410723 Ry
     estimated scf accuracy    <       1.12270764 Ry

     iteration # 46     ecut=    25.00 Ry     beta= 0.70
     Davidson diagonalization with overlap
     ethr =  3.11E-05,  avg # of iterations =  1.0

     total cpu time spent up to now is        3.6 secs

     total energy              =    -429.70794175 Ry
     Harris-Foulkes estimate   =    -429.71254771 Ry
     estimated scf accuracy    <       1.12004410 Ry

     iteration # 47     ecut=    25.00 Ry     beta= 0.70
     Davidson diagonalization with overlap
     ethr =  3.11E-05,  avg # of iterations =  1.0

     total cpu time spent up to now is        3.7 secs

     total energy              =    -429.69826022 Ry
     Harris-Foulkes estimate   =    -429.70794907 Ry
     estimated scf accuracy    <       1.10738313 Ry

     iteration # 48     ecut=    25.00 Ry     beta= 0.70
     Davidson diagonalization with overlap
     ethr =  3.11E-05,  avg # of iterations =  1.0

     total cpu time spent up to now is        3.7 secs

     total energy              =    -429.69013643 Ry
     Harris-Foulkes estimate   =    -429.69829694 Ry
     estimated scf accuracy    <       1.07808288 Ry

     iteration # 49     ecut=    25.00 Ry     beta= 0.70
     Davidson diagonalization with overlap
     ethr =  3.11E-05,  avg # of iterations =  1.0

     total cpu time spent up to now is        3.8 secs

     total energy              =    -429.17524595 Ry
     Harris-Foulkes estimate   =    -429.69016248 Ry
     estimated scf accuracy    <       1.05629645 Ry

     iteration # 50     ecut=    25.00 Ry     beta= 0.70
     Davidson diagonalization with overlap
     ethr =  3.11E-05,  avg # of iterations =  5.0

     total cpu time spent up to now is        3.8 secs

     total energy              =    -429.68559971 Ry
     Harris-Foulkes estimate   =    -429.91919828 Ry
     estimated scf accuracy    <       1.76810402 Ry

     iteration # 51     ecut=    25.00 Ry     beta= 0.70
     Davidson diagonalization with overlap
     ethr =  3.11E-05,  avg # of iterations =  4.0

     total cpu time spent up to now is        3.9 secs

     total energy              =    -429.44942348 Ry
     Harris-Foulkes estimate   =    -429.69994316 Ry
     estimated scf accuracy    <       1.08207574 Ry

     iteration # 52     ecut=    25.00 Ry     beta= 0.70
     Davidson diagonalization with overlap
     ethr =  3.11E-05,  avg # of iterations =  4.0

     total cpu time spent up to now is        4.0 secs

     total energy              =    -429.44548644 Ry
     Harris-Foulkes estimate   =    -429.47885022 Ry
     estimated scf accuracy    <       0.38988830 Ry

     iteration # 53     ecut=    25.00 Ry     beta= 0.70
     Davidson diagonalization with overlap
     ethr =  3.11E-05,  avg # of iterations =  3.0

     total cpu time spent up to now is        4.0 secs

     total energy              =    -429.41796473 Ry
     Harris-Foulkes estimate   =    -429.44683052 Ry
     estimated scf accuracy    <       0.28901940 Ry

     iteration # 54     ecut=    25.00 Ry     beta= 0.70
     Davidson diagonalization with overlap
     ethr =  3.11E-05,  avg # of iterations =  3.0

     total cpu time spent up to now is        4.1 secs

     total energy              =    -429.41216378 Ry
     Harris-Foulkes estimate   =    -429.41933721 Ry
     estimated scf accuracy    <       0.20181049 Ry

     iteration # 55     ecut=    25.00 Ry     beta= 0.70
     Davidson diagonalization with overlap
     ethr =  3.11E-05,  avg # of iterations =  1.0

     total cpu time spent up to now is        4.1 secs

     total energy              =    -429.40643238 Ry
     Harris-Foulkes estimate   =    -429.41226360 Ry
     estimated scf accuracy    <       0.18289202 Ry

     iteration # 56     ecut=    25.00 Ry     beta= 0.70
     Davidson diagonalization with overlap
     ethr =  3.11E-05,  avg # of iterations =  1.0

     total cpu time spent up to now is        4.1 secs

     total energy              =    -429.40608876 Ry
     Harris-Foulkes estimate   =    -429.40653938 Ry
     estimated scf accuracy    <       0.16677948 Ry

     iteration # 57     ecut=    25.00 Ry     beta= 0.70
     Davidson diagonalization with overlap
     ethr =  3.11E-05,  avg # of iterations =  1.0

     total cpu time spent up to now is        4.2 secs

     total energy              =    -429.40672115 Ry
     Harris-Foulkes estimate   =    -429.40611712 Ry
     estimated scf accuracy    <       0.16472049 Ry

     iteration # 58     ecut=    25.00 Ry     beta= 0.70
     Davidson diagonalization with overlap
     ethr =  3.11E-05,  avg # of iterations =  1.0

     total cpu time spent up to now is        4.2 secs

     total energy              =    -429.32345375 Ry
     Harris-Foulkes estimate   =    -429.40673085 Ry
     estimated scf accuracy    <       0.16473283 Ry

     iteration # 59     ecut=    25.00 Ry     beta= 0.70
     Davidson diagonalization with overlap
     ethr =  3.11E-05,  avg # of iterations =  5.0

     total cpu time spent up to now is        4.3 secs

     total energy              =    -429.75559212 Ry
     Harris-Foulkes estimate   =    -429.93723871 Ry
     estimated scf accuracy    <       1.82259606 Ry

     iteration # 60     ecut=    25.00 Ry     beta= 0.70
     Davidson diagonalization with overlap
     ethr =  3.11E-05,  avg # of iterations =  4.0

     total cpu time spent up to now is        4.3 secs

     total energy              =    -429.62337383 Ry
     Harris-Foulkes estimate   =    -429.76385505 Ry
     estimated scf accuracy    <       1.28101614 Ry

     iteration # 61     ecut=    25.00 Ry     beta= 0.70
     Davidson diagonalization with overlap
     ethr =  3.11E-05,  avg # of iterations =  4.0

     total cpu time spent up to now is        4.4 secs

     total energy              =    -429.62286312 Ry
     Harris-Foulkes estimate   =    -429.63052778 Ry
     estimated scf accuracy    <       0.86246806 Ry

     iteration # 62     ecut=    25.00 Ry     beta= 0.70
     Davidson diagonalization with overlap
     ethr =  3.11E-05,  avg # of iterations =  1.0

     total cpu time spent up to now is        4.4 secs

     total energy              =    -429.63931816 Ry
     Harris-Foulkes estimate   =    -429.62290054 Ry
     estimated scf accuracy    <       0.84428644 Ry

     iteration # 63     ecut=    25.00 Ry     beta= 0.70
     Davidson diagonalization with overlap
     ethr =  3.11E-05,  avg # of iterations =  1.0

     total cpu time spent up to now is        4.5 secs

     total energy              =    -429.64062187 Ry
     Harris-Foulkes estimate   =    -429.63939560 Ry
     estimated scf accuracy    <       0.88193010 Ry

     iteration # 64     ecut=    25.00 Ry     beta= 0.70
     Davidson diagonalization with overlap
     ethr =  3.11E-05,  avg # of iterations =  1.0

     total cpu time spent up to now is        4.5 secs

     total energy              =    -429.64766696 Ry
     Harris-Foulkes estimate   =    -429.64063865 Ry
     estimated scf accuracy    <       0.88707436 Ry

     iteration # 65     ecut=    25.00 Ry     beta= 0.70
     Davidson diagonalization with overlap
     ethr =  3.11E-05,  avg # of iterations =  1.0

     total cpu time spent up to now is        4.5 secs

     total energy              =    -429.64491780 Ry
     Harris-Foulkes estimate   =    -429.64770646 Ry
     estimated scf accuracy    <       0.90869454 Ry

     iteration # 66     ecut=    25.00 Ry     beta= 0.70
     Davidson diagonalization with overlap
     ethr =  3.11E-05,  avg # of iterations =  1.0

     total cpu time spent up to now is        4.6 secs

     total energy              =    -429.64522696 Ry
     Harris-Foulkes estimate   =    -429.64492828 Ry
     estimated scf accuracy    <       0.90415825 Ry

     iteration # 67     ecut=    25.00 Ry     beta= 0.70
     Davidson diagonalization with overlap
     ethr =  3.11E-05,  avg # of iterations =  1.0

     total cpu time spent up to now is        4.6 secs

     total energy              =    -429.19973653 Ry
     Harris-Foulkes estimate   =    -429.64523014 Ry
     estimated scf accuracy    <       0.90619452 Ry

     iteration # 68     ecut=    25.00 Ry     beta= 0.70
     Davidson diagonalization with overlap
     ethr =  3.11E-05,  avg # of iterations =  6.0

     total cpu time spent up to now is        4.7 secs

     total energy              =    -429.69309176 Ry
     Harris-Foulkes estimate   =    -429.92385311 Ry
     estimated scf accuracy    <       1.78589858 Ry

     iteration # 69     ecut=    25.00 Ry     beta= 0.70
     Davidson diagonalization with overlap
     ethr =  3.11E-05,  avg # of iterations =  4.0

     total cpu time spent up to now is        4.7 secs

     total energy              =    -429.50563521 Ry
     Harris-Foulkes estimate   =    -429.70720463 Ry
     estimated scf accuracy    <       1.10718432 Ry

     iteration # 70     ecut=    25.00 Ry     beta= 0.70
     Davidson diagonalization with overlap
     ethr =  3.11E-05,  avg # of iterations =  4.0

     total cpu time spent up to now is        4.8 secs

     total energy              =    -429.48776308 Ry
     Harris-Foulkes estimate   =    -429.52373953 Ry
     estimated scf accuracy    <       0.53001977 Ry

     iteration # 71     ecut=    25.00 Ry     beta= 0.70
     Davidson diagonalization with overlap
     ethr =  3.11E-05,  avg # of iterations =  3.0

     total cpu time spent up to now is        4.9 secs

     total energy              =    -429.43808528 Ry
     Harris-Foulkes estimate   =    -429.48885178 Ry
     estimated scf accuracy    <       0.42103100 Ry

     iteration # 72     ecut=    25.00 Ry     beta= 0.70
     Davidson diagonalization with overlap
     ethr =  3.11E-05,  avg # of iterations =  3.0

     total cpu time spent up to now is        4.9 secs

     total energy              =    -429.42242710 Ry
     Harris-Foulkes estimate   =    -429.44097452 Ry
     estimated scf accuracy    <       0.27003228 Ry

     iteration # 73     ecut=    25.00 Ry     beta= 0.70
     Davidson diagonalization with overlap
     ethr =  3.11E-05,  avg # of iterations =  3.0

     total cpu time spent up to now is        4.9 secs

     total energy              =    -429.42557051 Ry
     Harris-Foulkes estimate   =    -429.42299451 Ry
     estimated scf accuracy    <       0.21515857 Ry

     iteration # 74     ecut=    25.00 Ry     beta= 0.70
     Davidson diagonalization with overlap
     ethr =  3.11E-05,  avg # of iterations =  1.0

     total cpu time spent up to now is        5.0 secs

     total energy              =    -429.41841298 Ry
     Harris-Foulkes estimate   =    -429.42560570 Ry
     estimated scf accuracy    <       0.22078379 Ry

     iteration # 75     ecut=    25.00 Ry     beta= 0.70
     Davidson diagonalization with overlap
     ethr =  3.11E-05,  avg # of iterations =  1.0

     total cpu time spent up to now is        5.0 secs

     total energy              =    -429.41744105 Ry
     Harris-Foulkes estimate   =    -429.41849160 Ry
     estimated scf accuracy    <       0.20246165 Ry

     iteration # 76     ecut=    25.00 Ry     beta= 0.70
     Davidson diagonalization with overlap
     ethr =  3.11E-05,  avg # of iterations =  1.0

     total cpu time spent up to now is        5.1 secs

     total energy              =    -429.31802979 Ry
     Harris-Foulkes estimate   =    -429.41745797 Ry
     estimated scf accuracy    <       0.19956540 Ry

     iteration # 77     ecut=    25.00 Ry     beta= 0.70
     Davidson diagonalization with overlap
     ethr =  3.11E-05,  avg # of iterations =  5.0

     total cpu time spent up to now is        5.1 secs

     total energy              =    -429.72583661 Ry
     Harris-Foulkes estimate   =    -429.93236464 Ry
     estimated scf accuracy    <       1.80661495 Ry

     iteration # 78     ecut=    25.00 Ry     beta= 0.70
     Davidson diagonalization with overlap
     ethr =  3.11E-05,  avg # of iterations =  4.0

     total cpu time spent up to now is        5.2 secs

     total energy              =    -429.61503253 Ry
     Harris-Foulkes estimate   =    -429.73667494 Ry
     estimated scf accuracy    <       1.19594585 Ry

     iteration # 79     ecut=    25.00 Ry     beta= 0.70
     Davidson diagonalization with overlap
     ethr =  3.11E-05,  avg # of iterations =  4.0

     total cpu time spent up to now is        5.2 secs

     total energy              =    -429.59239384 Ry
     Harris-Foulkes estimate   =    -429.62073771 Ry
     estimated scf accuracy    <       0.83203132 Ry

     iteration # 80     ecut=    25.00 Ry     beta= 0.70
     Davidson diagonalization with overlap
     ethr =  3.11E-05,  avg # of iterations =  2.0

     total cpu time spent up to now is        5.3 secs

     total energy              =    -429.60748026 Ry
     Harris-Foulkes estimate   =    -429.59279578 Ry
     estimated scf accuracy    <       0.74942530 Ry

     iteration # 81     ecut=    25.00 Ry     beta= 0.70
     Davidson diagonalization with overlap
     ethr =  3.11E-05,  avg # of iterations =  1.0

     total cpu time spent up to now is        5.3 secs

     total energy              =    -429.61665343 Ry
     Harris-Foulkes estimate   =    -429.60757651 Ry
     estimated scf accuracy    <       0.78118273 Ry

     iteration # 82     ecut=    25.00 Ry     beta= 0.70
     Davidson diagonalization with overlap
     ethr =  3.11E-05,  avg # of iterations =  1.0

     total cpu time spent up to now is        5.3 secs

     total energy              =    -429.61761933 Ry
     Harris-Foulkes estimate   =    -429.61673871 Ry
     estimated scf accuracy    <       0.81247038 Ry

     iteration # 83     ecut=    25.00 Ry     beta= 0.70
     Davidson diagonalization with overlap
     ethr =  3.11E-05,  avg # of iterations =  1.0

     total cpu time spent up to now is        5.4 secs

     total energy              =    -429.63286820 Ry
     Harris-Foulkes estimate   =    -429.61763832 Ry
     estimated scf accuracy    <       0.81524411 Ry

     iteration # 84     ecut=    25.00 Ry     beta= 0.70
     Davidson diagonalization with overlap
     ethr =  3.11E-05,  avg # of iterations =  1.0

     total cpu time spent up to now is        5.4 secs

     total energy              =    -429.64261818 Ry
     Harris-Foulkes estimate   =    -429.63300155 Ry
     estimated scf accuracy    <       0.86008233 Ry

     iteration # 85     ecut=    25.00 Ry     beta= 0.70
     Davidson diagonalization with overlap
     ethr =  3.11E-05,  avg # of iterations =  1.0

     total cpu time spent up to now is        5.5 secs

     total energy              =    -429.20357073 Ry
     Harris-Foulkes estimate   =    -429.64270160 Ry
     estimated scf accuracy    <       0.88709032 Ry

     iteration # 86     ecut=    25.00 Ry     beta= 0.70
     Davidson diagonalization with overlap
     ethr =  3.11E-05,  avg # of iterations =  5.0

     total cpu time spent up to now is        5.5 secs

     total energy              =    -429.70536608 Ry
     Harris-Foulkes estimate   =    -429.92324338 Ry
     estimated scf accuracy    <       1.78499640 Ry

     iteration # 87     ecut=    25.00 Ry     beta= 0.70
     Davidson diagonalization with overlap
     ethr =  3.11E-05,  avg # of iterations =  4.0

     total cpu time spent up to now is        5.6 secs

     total energy              =    -429.44160248 Ry
     Harris-Foulkes estimate   =    -429.71764028 Ry
     estimated scf accuracy    <       1.14140080 Ry

     iteration # 88     ecut=    25.00 Ry     beta= 0.70
     Davidson diagonalization with overlap
     ethr =  3.11E-05,  avg # of iterations =  4.0

     total cpu time spent up to now is        5.6 secs

     total energy              =    -429.45326947 Ry
     Harris-Foulkes estimate   =    -429.47651905 Ry
     estimated scf accuracy    <       0.38147148 Ry

     iteration # 89     ecut=    25.00 Ry     beta= 0.70
     Davidson diagonalization with overlap
     ethr =  3.11E-05,  avg # of iterations =  3.0

     total cpu time spent up to now is        5.7 secs

     total energy              =    -429.44305480 Ry
     Harris-Foulkes estimate   =    -429.45391310 Ry
     estimated scf accuracy    <       0.31128921 Ry

     iteration # 90     ecut=    25.00 Ry     beta= 0.70
     Davidson diagonalization with overlap
     ethr =  3.11E-05,  avg # of iterations =  1.0

     total cpu time spent up to now is        5.7 secs

     total energy              =    -429.45291074 Ry
     Harris-Foulkes estimate   =    -429.44321687 Ry
     estimated scf accuracy    <       0.28082833 Ry

     iteration # 91     ecut=    25.00 Ry     beta= 0.70
     Davidson diagonalization with overlap
     ethr =  3.11E-05,  avg # of iterations =  1.0

     total cpu time spent up to now is        5.8 secs

     total energy              =    -429.45074973 Ry
     Harris-Foulkes estimate   =    -429.45300285 Ry
     estimated scf accuracy    <       0.30202133 Ry

     iteration # 92     ecut=    25.00 Ry     beta= 0.70
     Davidson diagonalization with overlap
     ethr =  3.11E-05,  avg # of iterations =  1.0

     total cpu time spent up to now is        5.8 secs

     total energy              =    -429.44898617 Ry
     Harris-Foulkes estimate   =    -429.45075854 Ry
     estimated scf accuracy    <       0.29878367 Ry

     iteration # 93     ecut=    25.00 Ry     beta= 0.70
     Davidson diagonalization with overlap
     ethr =  3.11E-05,  avg # of iterations =  1.0

     total cpu time spent up to now is        5.8 secs

     total energy              =    -429.45415979 Ry
     Harris-Foulkes estimate   =    -429.44898850 Ry
     estimated scf accuracy    <       0.29519792 Ry

     iteration # 94     ecut=    25.00 Ry     beta= 0.70
     Davidson diagonalization with overlap
     ethr =  3.11E-05,  avg # of iterations =  1.0

     total cpu time spent up to now is        5.9 secs

     total energy              =    -429.29913311 Ry
     Harris-Foulkes estimate   =    -429.45418889 Ry
     estimated scf accuracy    <       0.30909422 Ry

     iteration # 95     ecut=    25.00 Ry     beta= 0.70
     Davidson diagonalization with overlap
     ethr =  3.11E-05,  avg # of iterations =  5.0

     total cpu time spent up to now is        5.9 secs

     total energy              =    -429.67797789 Ry
     Harris-Foulkes estimate   =    -429.93274390 Ry
     estimated scf accuracy    <       1.80882961 Ry

     iteration # 96     ecut=    25.00 Ry     beta= 0.70
     Davidson diagonalization with overlap
     ethr =  3.11E-05,  avg # of iterations =  4.0

     total cpu time spent up to now is        6.0 secs

     total energy              =    -429.60360108 Ry
     Harris-Foulkes estimate   =    -429.69488295 Ry
     estimated scf accuracy    <       1.06500892 Ry

     iteration # 97     ecut=    25.00 Ry     beta= 0.70
     Davidson diagonalization with overlap
     ethr =  3.11E-05,  avg # of iterations =  4.0

     total cpu time spent up to now is        6.1 secs

     total energy              =    -429.57686956 Ry
     Harris-Foulkes estimate   =    -429.60715354 Ry
     estimated scf accuracy    <       0.78995090 Ry

     iteration # 98     ecut=    25.00 Ry     beta= 0.70
     Davidson diagonalization with overlap
     ethr =  3.11E-05,  avg # of iterations =  2.0

     total cpu time spent up to now is        6.1 secs

     total energy              =    -429.58078180 Ry
     Harris-Foulkes estimate   =    -429.57735632 Ry
     estimated scf accuracy    <       0.70162707 Ry

     iteration # 99     ecut=    25.00 Ry     beta= 0.70
     Davidson diagonalization with overlap
     ethr =  3.11E-05,  avg # of iterations =  1.0

     total cpu time spent up to now is        6.1 secs

     total energy              =    -429.57967146 Ry
     Harris-Foulkes estimate   =    -429.58082434 Ry
     estimated scf accuracy    <       0.70804089 Ry

     iteration #100     ecut=    25.00 Ry     beta= 0.70
     Davidson diagonalization with overlap
     ethr =  3.11E-05,  avg # of iterations =  1.0

     total cpu time spent up to now is        6.2 secs

     total energy              =    -429.57160961 Ry
     Harris-Foulkes estimate   =    -429.57967668 Ry
     estimated scf accuracy    <       0.70436330 Ry

     End of self-consistent calculation

     convergence NOT achieved after 100 iterations: stopping

     Writing output data file SnO2.save
 
     init_run     :      0.08s CPU      0.22s WALL (       1 calls)
     electrons    :      4.65s CPU      5.01s WALL (       1 calls)

     Called by init_run:
     wfcinit      :      0.01s CPU      0.11s WALL (       1 calls)
     potinit      :      0.02s CPU      0.02s WALL (       1 calls)
     hinit0       :      0.04s CPU      0.08s WALL (       1 calls)

     Called by electrons:
     c_bands      :      3.45s CPU      3.61s WALL (     100 calls)
     sum_band     :      0.55s CPU      0.55s WALL (     100 calls)
     v_of_rho     :      0.50s CPU      0.51s WALL (     101 calls)
     mix_rho      :      0.14s CPU      0.14s WALL (     100 calls)

     Called by c_bands:
     init_us_2    :      0.03s CPU      0.06s WALL (     201 calls)
     cegterg      :      3.14s CPU      3.27s WALL (     100 calls)

     Called by sum_band:

     Called by *egterg:
     h_psi        :      2.24s CPU      2.40s WALL (     369 calls)
     g_psi        :      0.03s CPU      0.02s WALL (     268 calls)
     cdiaghg      :      0.51s CPU      0.59s WALL (     368 calls)

     Called by h_psi:
     h_psi:pot    :      2.23s CPU      2.39s WALL (     369 calls)
     h_psi:calbec :      0.18s CPU      0.19s WALL (     369 calls)
     vloc_psi     :      2.02s CPU      2.05s WALL (     369 calls)
     add_vuspsi   :      0.04s CPU      0.15s WALL (     369 calls)

     General routines
     calbec       :      0.18s CPU      0.18s WALL (     369 calls)
     fft          :      0.27s CPU      0.24s WALL (    1012 calls)
     ffts         :      0.03s CPU      0.02s WALL (     100 calls)
     fftw         :      2.43s CPU      2.29s WALL (   15472 calls)
     davcio       :      0.00s CPU      0.00s WALL (      19 calls)
 
     Parallel routines
     fft_scatt_xy :      0.03s CPU      0.21s WALL (   16584 calls)
     fft_scatt_yz :      2.36s CPU      0.38s WALL (   16584 calls)
 
     PWSCF        :     4.94s CPU         6.46s WALL

 
   This run was terminated on:  12:23:40  21Apr2018            

=------------------------------------------------------------------------------=
   JOB DONE.
=------------------------------------------------------------------------------=
