
     Program PWSCF v.6.2.2 starts on 21Apr2018 at 12:30:58 

     This program is part of the open-source Quantum ESPRESSO suite
     for quantum simulation of materials; please cite
         "P. Giannozzi et al., J. Phys.:Condens. Matter 21 395502 (2009);
         "P. Giannozzi et al., J. Phys.:Condens. Matter 29 465901 (2017);
          URL http://www.quantum-espresso.org", 
     in publications or presentations arising from this work. More details at
     http://www.quantum-espresso.org/quote

     Parallel version (MPI), running on     2 processors

     MPI processes distributed on     1 nodes
     R & G space division:  proc/nbgrp/npool/nimage =       2
     Reading input from Conv_etot-kp.in
Warning: card &IONS ignored
Warning: card / ignored
Warning: card &CELL ignored
Warning: card / ignored

     Current dimensions of program PWSCF are:
     Max number of different atomic species (ntypx) = 10
     Max number of k-points (npk) =  40000
     Max angular momentum in pseudopotentials (lmaxx) =  3

     Subspace diagonalization in iterative solution of the eigenvalue problem:
     a serial algorithm will be used

 
     Parallelization info
     --------------------
     sticks:   dense  smooth     PW     G-vecs:    dense   smooth      PW
     Min         332     332    110                 4313     4313     791
     Max         333     333    111                 4314     4314     792
     Sum         665     665    221                 8627     8627    1583
 


     bravais-lattice index     =            6
     lattice parameter (alat)  =       9.1100  a.u.
     unit-cell volume          =     506.5589 (a.u.)^3
     number of atoms/cell      =            6
     number of atomic types    =            2
     number of electrons       =        52.00
     number of Kohn-Sham states=           26
     kinetic-energy cutoff     =      25.0000  Ry
     charge density cutoff     =     100.0000  Ry
     convergence threshold     =      1.0E-12
     mixing beta               =       0.7000
     number of iterations used =            8  plain     mixing
     Exchange-correlation      = PBE ( 1  4  3  4 0 0)

     celldm(1)=   9.110000  celldm(2)=   0.000000  celldm(3)=   0.670000
     celldm(4)=   0.000000  celldm(5)=   0.000000  celldm(6)=   0.000000

     crystal axes: (cart. coord. in units of alat)
               a(1) = (   1.000000   0.000000   0.000000 )  
               a(2) = (   0.000000   1.000000   0.000000 )  
               a(3) = (   0.000000   0.000000   0.670000 )  

     reciprocal axes: (cart. coord. in units 2 pi/alat)
               b(1) = (  1.000000  0.000000  0.000000 )  
               b(2) = (  0.000000  1.000000  0.000000 )  
               b(3) = (  0.000000  0.000000  1.492537 )  


     PseudoPot. # 1 for Sn read from file:
     ../../Pseudo_potentials/Sn_PBE.upf
     MD5 check sum: 78e6386ae56e929f0568ae8bf606a80c
     Pseudo is Norm-conserving + core correction, Zval = 14.0
     Generated using ONCVPSP code by D. R. Hamann
     Using radial grid of 1628 points,  6 beta functions with: 
                l(1) =   0
                l(2) =   0
                l(3) =   1
                l(4) =   1
                l(5) =   2
                l(6) =   2

     PseudoPot. # 2 for O  read from file:
     ../../Pseudo_potentials/O_PBE.upf
     MD5 check sum: 3e3f909f7470e8921608ab6b1f57bbae
     Pseudo is Norm-conserving + core correction, Zval =  6.0
     Generated using ONCVPSP code by D. R. Hamann
     Using radial grid of  936 points,  5 beta functions with: 
                l(1) =   0
                l(2) =   0
                l(3) =   1
                l(4) =   1
                l(5) =   2

     atomic species   valence    mass     pseudopotential
        Sn            14.00   118.71000     Sn( 1.00)
        O              6.00    15.99900     O ( 1.00)

      4 Sym. Ops. (no inversion) found



   Cartesian axes

     site n.     atom                  positions (alat units)
         1           Sn  tau(   1) = (   0.0000000   0.0000000   0.0000000  )
         2           Sn  tau(   2) = (   0.5000000   0.5000000   0.3350000  )
         3           O   tau(   3) = (   0.8060000   0.1930000   0.3350000  )
         4           O   tau(   4) = (   0.1930000   0.8060000   0.3350000  )
         5           O   tau(   5) = (   0.3060000   0.3060000   0.0000000  )
         6           O   tau(   6) = (   0.6930000   0.6930000   0.0000000  )

     number of k points=   456

     Number of k-points >= 100: set verbosity='high' to print them.

     Dense  grid:     8627 G-vectors     FFT dimensions: (  30,  30,  20)

     Estimated max dynamical RAM per process >     104.63 MB

     Estimated total dynamical RAM >     209.26 MB

     Check: negative/imaginary core charge=   -0.002394    0.000000

     Initial potential from superposition of free atoms
     Check: negative starting charge=   -0.009566

     starting charge   51.99690, renormalised to   52.00000

     negative rho (up, down):  9.566E-03 0.000E+00
     Starting wfc are   34 randomized atomic wfcs

     total cpu time spent up to now is        7.6 secs

     Self-consistent Calculation

     iteration #  1     ecut=    25.00 Ry     beta= 0.70
     Davidson diagonalization with overlap
     ethr =  1.00E-02,  avg # of iterations =  2.0

     negative rho (up, down):  2.854E-03 0.000E+00

     total cpu time spent up to now is       28.5 secs

     total energy              =    -429.62360878 Ry
     Harris-Foulkes estimate   =    -432.65466241 Ry
     estimated scf accuracy    <       4.17268469 Ry

     iteration #  2     ecut=    25.00 Ry     beta= 0.70
     Davidson diagonalization with overlap
     ethr =  8.02E-03,  avg # of iterations =  2.0

     negative rho (up, down):  8.827E-04 0.000E+00

     total cpu time spent up to now is       47.5 secs

     total energy              =    -430.39907362 Ry
     Harris-Foulkes estimate   =    -430.54008301 Ry
     estimated scf accuracy    <       0.24986987 Ry

     iteration #  3     ecut=    25.00 Ry     beta= 0.70
     Davidson diagonalization with overlap
     ethr =  4.81E-04,  avg # of iterations =  2.8

     negative rho (up, down):  1.593E-04 0.000E+00

     total cpu time spent up to now is       68.1 secs

     total energy              =    -430.44505317 Ry
     Harris-Foulkes estimate   =    -430.45889235 Ry
     estimated scf accuracy    <       0.02968884 Ry

     iteration #  4     ecut=    25.00 Ry     beta= 0.70
     Davidson diagonalization with overlap
     ethr =  5.71E-05,  avg # of iterations =  2.9

     total cpu time spent up to now is       88.4 secs

     total energy              =    -430.45049795 Ry
     Harris-Foulkes estimate   =    -430.45232397 Ry
     estimated scf accuracy    <       0.00356771 Ry

     iteration #  5     ecut=    25.00 Ry     beta= 0.70
     Davidson diagonalization with overlap
     ethr =  6.86E-06,  avg # of iterations =  3.0

     total cpu time spent up to now is      109.2 secs

     total energy              =    -430.45133508 Ry
     Harris-Foulkes estimate   =    -430.45142076 Ry
     estimated scf accuracy    <       0.00017557 Ry

     iteration #  6     ecut=    25.00 Ry     beta= 0.70
     Davidson diagonalization with overlap
     ethr =  3.38E-07,  avg # of iterations =  3.1

     total cpu time spent up to now is      130.2 secs

     total energy              =    -430.45137853 Ry
     Harris-Foulkes estimate   =    -430.45138536 Ry
     estimated scf accuracy    <       0.00001640 Ry

     iteration #  7     ecut=    25.00 Ry     beta= 0.70
     Davidson diagonalization with overlap
     ethr =  3.15E-08,  avg # of iterations =  3.2

     total cpu time spent up to now is      150.1 secs

     total energy              =    -430.45138017 Ry
     Harris-Foulkes estimate   =    -430.45138227 Ry
     estimated scf accuracy    <       0.00000485 Ry

     iteration #  8     ecut=    25.00 Ry     beta= 0.70
     Davidson diagonalization with overlap
     ethr =  9.33E-09,  avg # of iterations =  2.7

     total cpu time spent up to now is      169.9 secs

     total energy              =    -430.45138102 Ry
     Harris-Foulkes estimate   =    -430.45138103 Ry
     estimated scf accuracy    <       0.00000003 Ry

     iteration #  9     ecut=    25.00 Ry     beta= 0.70
     Davidson diagonalization with overlap
     ethr =  5.57E-11,  avg # of iterations =  3.9

     total cpu time spent up to now is      197.1 secs

     total energy              =    -430.45138104 Ry
     Harris-Foulkes estimate   =    -430.45138104 Ry
     estimated scf accuracy    <       0.00000002 Ry

     iteration # 10     ecut=    25.00 Ry     beta= 0.70
     Davidson diagonalization with overlap
     ethr =  3.93E-11,  avg # of iterations =  3.0

     total cpu time spent up to now is      216.6 secs

     total energy              =    -430.45138104 Ry
     Harris-Foulkes estimate   =    -430.45138104 Ry
     estimated scf accuracy    <          2.7E-09 Ry

     iteration # 11     ecut=    25.00 Ry     beta= 0.70
     Davidson diagonalization with overlap
     ethr =  5.17E-12,  avg # of iterations =  3.1

     total cpu time spent up to now is      237.8 secs

     total energy              =    -430.45138104 Ry
     Harris-Foulkes estimate   =    -430.45138104 Ry
     estimated scf accuracy    <          1.6E-10 Ry

     iteration # 12     ecut=    25.00 Ry     beta= 0.70
     Davidson diagonalization with overlap
     ethr =  3.16E-13,  avg # of iterations =  3.1

     total cpu time spent up to now is      257.9 secs

     total energy              =    -430.45138104 Ry
     Harris-Foulkes estimate   =    -430.45138104 Ry
     estimated scf accuracy    <          1.5E-11 Ry

     iteration # 13     ecut=    25.00 Ry     beta= 0.70
     Davidson diagonalization with overlap
     ethr =  1.00E-13,  avg # of iterations =  2.0

     total cpu time spent up to now is      275.2 secs

     End of self-consistent calculation

     Number of k-points >= 100: set verbosity='high' to print the bands.

     highest occupied level (ev):     9.8204

!    total energy              =    -430.45138104 Ry
     Harris-Foulkes estimate   =    -430.45138104 Ry
     estimated scf accuracy    <          2.1E-13 Ry

     The total energy is the sum of the following terms:

     one-electron contribution =     -96.64306231 Ry
     hartree contribution      =      85.50877091 Ry
     xc contribution           =    -116.83575130 Ry
     ewald contribution        =    -302.48133834 Ry

     convergence has been achieved in  13 iterations

     Writing output data file SnO2.save
 
     init_run     :      7.09s CPU      7.39s WALL (       1 calls)
     electrons    :    257.32s CPU    267.63s WALL (       1 calls)

     Called by init_run:
     wfcinit      :      7.00s CPU      7.30s WALL (       1 calls)
     potinit      :      0.02s CPU      0.02s WALL (       1 calls)
     hinit0       :      0.06s CPU      0.06s WALL (       1 calls)

     Called by electrons:
     c_bands      :    229.53s CPU    238.83s WALL (      13 calls)
     sum_band     :     27.71s CPU     28.68s WALL (      13 calls)
     v_of_rho     :      0.07s CPU      0.07s WALL (      14 calls)
     mix_rho      :      0.01s CPU      0.01s WALL (      13 calls)

     Called by c_bands:
     init_us_2    :      1.88s CPU      3.93s WALL (   12312 calls)
     cegterg      :    210.15s CPU    218.05s WALL (    5928 calls)

     Called by sum_band:

     Called by *egterg:
     h_psi        :    158.60s CPU    168.70s WALL (   23108 calls)
     g_psi        :      0.75s CPU      1.70s WALL (   16724 calls)
     cdiaghg      :     29.94s CPU     30.10s WALL (   22652 calls)

     Called by h_psi:
     h_psi:pot    :    158.26s CPU    167.98s WALL (   23108 calls)
     h_psi:calbec :     11.68s CPU     10.80s WALL (   23108 calls)
     vloc_psi     :    144.29s CPU    146.99s WALL (   23108 calls)
     add_vuspsi   :      2.29s CPU     10.12s WALL (   23108 calls)

     General routines
     calbec       :     11.68s CPU     10.76s WALL (   23108 calls)
     fft          :      0.04s CPU      0.03s WALL (     141 calls)
     ffts         :      0.00s CPU      0.00s WALL (      13 calls)
     fftw         :    170.09s CPU    161.54s WALL ( 1014774 calls)
 
     Parallel routines
     fft_scatt_xy :      1.12s CPU     13.37s WALL ( 1014928 calls)
     fft_scatt_yz :    156.08s CPU     24.43s WALL ( 1014928 calls)
 
     PWSCF        :  4m24.96s CPU     4m47.64s WALL

 
   This run was terminated on:  12:35:46  21Apr2018            

=------------------------------------------------------------------------------=
   JOB DONE.
=------------------------------------------------------------------------------=
