
     Program PWSCF v.6.2.2 starts on  6Apr2018 at 21:48:46 

     This program is part of the open-source Quantum ESPRESSO suite
     for quantum simulation of materials; please cite
         "P. Giannozzi et al., J. Phys.:Condens. Matter 21 395502 (2009);
         "P. Giannozzi et al., J. Phys.:Condens. Matter 29 465901 (2017);
          URL http://www.quantum-espresso.org", 
     in publications or presentations arising from this work. More details at
     http://www.quantum-espresso.org/quote

     Parallel version (MPI), running on     2 processors

     MPI processes distributed on     1 nodes
     R & G space division:  proc/nbgrp/npool/nimage =       2
     Reading input from Conv_etot-k2.in
Warning: card &IONS ignored
Warning: card / ignored
Warning: card &CELL ignored
Warning: card / ignored

     Current dimensions of program PWSCF are:
     Max number of different atomic species (ntypx) = 10
     Max number of k-points (npk) =  40000
     Max angular momentum in pseudopotentials (lmaxx) =  3

     Subspace diagonalization in iterative solution of the eigenvalue problem:
     a serial algorithm will be used

 
     Parallelization info
     --------------------
     sticks:   dense  smooth     PW     G-vecs:    dense   smooth      PW
     Min         200     200     48                 2007     2007     250
     Max         201     201     49                 2008     2008     253
     Sum         401     401     97                 4015     4015     503
 


     bravais-lattice index     =            6
     lattice parameter (alat)  =       9.1100  a.u.
     unit-cell volume          =     506.5589 (a.u.)^3
     number of atoms/cell      =            6
     number of atomic types    =            2
     number of electrons       =        52.00
     number of Kohn-Sham states=           26
     kinetic-energy cutoff     =      15.0000  Ry
     charge density cutoff     =      60.0000  Ry
     convergence threshold     =      1.0E-12
     mixing beta               =       0.7000
     number of iterations used =            8  plain     mixing
     Exchange-correlation      = PBE ( 1  4  3  4 0 0)

     celldm(1)=   9.110000  celldm(2)=   0.000000  celldm(3)=   0.670000
     celldm(4)=   0.000000  celldm(5)=   0.000000  celldm(6)=   0.000000

     crystal axes: (cart. coord. in units of alat)
               a(1) = (   1.000000   0.000000   0.000000 )  
               a(2) = (   0.000000   1.000000   0.000000 )  
               a(3) = (   0.000000   0.000000   0.670000 )  

     reciprocal axes: (cart. coord. in units 2 pi/alat)
               b(1) = (  1.000000  0.000000  0.000000 )  
               b(2) = (  0.000000  1.000000  0.000000 )  
               b(3) = (  0.000000  0.000000  1.492537 )  


     PseudoPot. # 1 for Sn read from file:
     ../Pseudo_potentials/Sn_PBE.upf
     MD5 check sum: 78e6386ae56e929f0568ae8bf606a80c
     Pseudo is Norm-conserving + core correction, Zval = 14.0
     Generated using ONCVPSP code by D. R. Hamann
     Using radial grid of 1628 points,  6 beta functions with: 
                l(1) =   0
                l(2) =   0
                l(3) =   1
                l(4) =   1
                l(5) =   2
                l(6) =   2

     PseudoPot. # 2 for O  read from file:
     ../Pseudo_potentials/O_PBE.upf
     MD5 check sum: 3e3f909f7470e8921608ab6b1f57bbae
     Pseudo is Norm-conserving + core correction, Zval =  6.0
     Generated using ONCVPSP code by D. R. Hamann
     Using radial grid of  936 points,  5 beta functions with: 
                l(1) =   0
                l(2) =   0
                l(3) =   1
                l(4) =   1
                l(5) =   2

     atomic species   valence    mass     pseudopotential
        Sn            14.00   118.71000     Sn( 1.00)
        O              6.00    15.99900     O ( 1.00)

      4 Sym. Ops. (no inversion) found



   Cartesian axes

     site n.     atom                  positions (alat units)
         1           Sn  tau(   1) = (   0.0000000   0.0000000   0.0000000  )
         2           Sn  tau(   2) = (   0.5000000   0.5000000   0.3350000  )
         3           O   tau(   3) = (   0.8060000   0.1930000   0.3350000  )
         4           O   tau(   4) = (   0.1930000   0.8060000   0.3350000  )
         5           O   tau(   5) = (   0.3060000   0.3060000   0.0000000  )
         6           O   tau(   6) = (   0.6930000   0.6930000   0.0000000  )

     number of k points=     1
                       cart. coord. in units 2pi/alat
        k(    1) = (   0.0000000   0.0000000   0.0000000), wk =   2.0000000

     Dense  grid:     4015 G-vectors     FFT dimensions: (  24,  24,  15)

     Estimated max dynamical RAM per process >       4.77 MB

     Estimated total dynamical RAM >       9.53 MB

     Check: negative/imaginary core charge=   -0.005277    0.000000

     Initial potential from superposition of free atoms
     Check: negative starting charge=   -0.053732

     starting charge   51.99690, renormalised to   52.00000

     negative rho (up, down):  5.373E-02 0.000E+00
     Starting wfc are   34 randomized atomic wfcs

     total cpu time spent up to now is        1.1 secs

     Self-consistent Calculation

     iteration #  1     ecut=    15.00 Ry     beta= 0.70
     Davidson diagonalization with overlap
     ethr =  1.00E-02,  avg # of iterations =  3.0

     negative rho (up, down):  1.597E-02 0.000E+00

     total cpu time spent up to now is        1.2 secs

     total energy              =    -391.91662978 Ry
     Harris-Foulkes estimate   =    -412.46068228 Ry
     estimated scf accuracy    <      26.18983882 Ry

     iteration #  2     ecut=    15.00 Ry     beta= 0.70
     Davidson diagonalization with overlap
     ethr =  1.00E-02,  avg # of iterations =  5.0

     negative rho (up, down):  6.097E-03 0.000E+00

     total cpu time spent up to now is        1.3 secs

     total energy              =    -396.44011025 Ry
     Harris-Foulkes estimate   =    -401.32029203 Ry
     estimated scf accuracy    <       8.06844441 Ry

     iteration #  3     ecut=    15.00 Ry     beta= 0.70
     Davidson diagonalization with overlap
     ethr =  1.00E-02,  avg # of iterations =  4.0

     negative rho (up, down):  1.841E-03 0.000E+00

     total cpu time spent up to now is        1.4 secs

     total energy              =    -398.86658558 Ry
     Harris-Foulkes estimate   =    -399.75443230 Ry
     estimated scf accuracy    <       1.94098132 Ry

     iteration #  4     ecut=    15.00 Ry     beta= 0.70
     Davidson diagonalization with overlap
     ethr =  3.73E-03,  avg # of iterations =  2.0

     total cpu time spent up to now is        1.4 secs

     total energy              =    -399.02284347 Ry
     Harris-Foulkes estimate   =    -399.08261446 Ry
     estimated scf accuracy    <       0.16472222 Ry

     iteration #  5     ecut=    15.00 Ry     beta= 0.70
     Davidson diagonalization with overlap
     ethr =  3.17E-04,  avg # of iterations =  2.0

     total cpu time spent up to now is        1.5 secs

     total energy              =    -399.02943939 Ry
     Harris-Foulkes estimate   =    -399.04037739 Ry
     estimated scf accuracy    <       0.01586042 Ry

     iteration #  6     ecut=    15.00 Ry     beta= 0.70
     Davidson diagonalization with overlap
     ethr =  3.05E-05,  avg # of iterations =  5.0

     total cpu time spent up to now is        1.6 secs

     total energy              =    -399.22207085 Ry
     Harris-Foulkes estimate   =    -399.29551172 Ry
     estimated scf accuracy    <       0.72798167 Ry

     iteration #  7     ecut=    15.00 Ry     beta= 0.70
     Davidson diagonalization with overlap
     ethr =  3.05E-05,  avg # of iterations =  4.0

     total cpu time spent up to now is        1.7 secs

     total energy              =    -399.25531991 Ry
     Harris-Foulkes estimate   =    -399.22807027 Ry
     estimated scf accuracy    <       0.46380415 Ry

     iteration #  8     ecut=    15.00 Ry     beta= 0.70
     Davidson diagonalization with overlap
     ethr =  3.05E-05,  avg # of iterations =  1.0

     total cpu time spent up to now is        1.7 secs

     total energy              =    -399.08883515 Ry
     Harris-Foulkes estimate   =    -399.25563384 Ry
     estimated scf accuracy    <       0.52721419 Ry

     iteration #  9     ecut=    15.00 Ry     beta= 0.70
     Davidson diagonalization with overlap
     ethr =  3.05E-05,  avg # of iterations =  7.0

     total cpu time spent up to now is        1.9 secs

     total energy              =    -399.29608253 Ry
     Harris-Foulkes estimate   =    -399.36742777 Ry
     estimated scf accuracy    <       1.01365181 Ry

     iteration # 10     ecut=    15.00 Ry     beta= 0.70
     Davidson diagonalization with overlap
     ethr =  3.05E-05,  avg # of iterations =  4.0

     total cpu time spent up to now is        2.0 secs

     total energy              =    -399.28288857 Ry
     Harris-Foulkes estimate   =    -399.30069430 Ry
     estimated scf accuracy    <       0.75378437 Ry

     iteration # 11     ecut=    15.00 Ry     beta= 0.70
     Davidson diagonalization with overlap
     ethr =  3.05E-05,  avg # of iterations =  3.0

     total cpu time spent up to now is        2.0 secs

     total energy              =    -399.21262644 Ry
     Harris-Foulkes estimate   =    -399.28610847 Ry
     estimated scf accuracy    <       0.65521988 Ry

     iteration # 12     ecut=    15.00 Ry     beta= 0.70
     Davidson diagonalization with overlap
     ethr =  3.05E-05,  avg # of iterations =  3.0

     total cpu time spent up to now is        2.1 secs

     total energy              =    -399.06376121 Ry
     Harris-Foulkes estimate   =    -399.21618875 Ry
     estimated scf accuracy    <       0.46799368 Ry

     iteration # 13     ecut=    15.00 Ry     beta= 0.70
     Davidson diagonalization with overlap
     ethr =  3.05E-05,  avg # of iterations =  7.0

     total cpu time spent up to now is        2.2 secs

     total energy              =    -399.14230512 Ry
     Harris-Foulkes estimate   =    -399.10921858 Ry
     estimated scf accuracy    <       0.80951303 Ry

     iteration # 14     ecut=    15.00 Ry     beta= 0.70
     Davidson diagonalization with overlap
     ethr =  3.05E-05,  avg # of iterations =  3.0

     total cpu time spent up to now is        2.3 secs

     total energy              =    -399.18159328 Ry
     Harris-Foulkes estimate   =    -399.14323856 Ry
     estimated scf accuracy    <       0.91815480 Ry

     iteration # 15     ecut=    15.00 Ry     beta= 0.70
     Davidson diagonalization with overlap
     ethr =  3.05E-05,  avg # of iterations =  3.0

     total cpu time spent up to now is        2.4 secs

     total energy              =    -399.48632254 Ry
     Harris-Foulkes estimate   =    -399.18269156 Ry
     estimated scf accuracy    <       1.03815024 Ry

     iteration # 16     ecut=    15.00 Ry     beta= 0.70
     Davidson diagonalization with overlap
     ethr =  3.05E-05,  avg # of iterations =  6.0

     total cpu time spent up to now is        2.5 secs

     total energy              =    -399.88514574 Ry
     Harris-Foulkes estimate   =    -399.88904215 Ry
     estimated scf accuracy    <       3.80818682 Ry

     iteration # 17     ecut=    15.00 Ry     beta= 0.70
     Davidson diagonalization with overlap
     ethr =  3.05E-05,  avg # of iterations =  1.0

     total cpu time spent up to now is        2.5 secs

     total energy              =    -399.91559375 Ry
     Harris-Foulkes estimate   =    -399.88515519 Ry
     estimated scf accuracy    <       3.79857495 Ry

     iteration # 18     ecut=    15.00 Ry     beta= 0.70
     Davidson diagonalization with overlap
     ethr =  3.05E-05,  avg # of iterations =  5.0

     total cpu time spent up to now is        2.6 secs

     total energy              =    -399.95303134 Ry
     Harris-Foulkes estimate   =    -399.92894713 Ry
     estimated scf accuracy    <       5.00623544 Ry

     iteration # 19     ecut=    15.00 Ry     beta= 0.70
     Davidson diagonalization with overlap
     ethr =  3.05E-05,  avg # of iterations =  1.0

     total cpu time spent up to now is        2.7 secs

     total energy              =    -399.98460078 Ry
     Harris-Foulkes estimate   =    -399.95310008 Ry
     estimated scf accuracy    <       5.06543064 Ry

     iteration # 20     ecut=    15.00 Ry     beta= 0.70
     Davidson diagonalization with overlap
     ethr =  3.05E-05,  avg # of iterations =  1.0

     total cpu time spent up to now is        2.7 secs

     total energy              =    -398.64329661 Ry
     Harris-Foulkes estimate   =    -399.98480394 Ry
     estimated scf accuracy    <       5.17021999 Ry

     iteration # 21     ecut=    15.00 Ry     beta= 0.70
     Davidson diagonalization with overlap
     ethr =  3.05E-05,  avg # of iterations =  5.0

     total cpu time spent up to now is        2.9 secs

     total energy              =    -399.03714999 Ry
     Harris-Foulkes estimate   =    -399.16945094 Ry
     estimated scf accuracy    <       0.31448191 Ry

     iteration # 22     ecut=    15.00 Ry     beta= 0.70
     Davidson diagonalization with overlap
     ethr =  3.05E-05,  avg # of iterations =  6.0

     total cpu time spent up to now is        3.0 secs

     total energy              =    -399.26987119 Ry
     Harris-Foulkes estimate   =    -399.52895320 Ry
     estimated scf accuracy    <       1.65669099 Ry

     iteration # 23     ecut=    15.00 Ry     beta= 0.70
     Davidson diagonalization with overlap
     ethr =  3.05E-05,  avg # of iterations =  4.0

     total cpu time spent up to now is        3.1 secs

     total energy              =    -399.21935588 Ry
     Harris-Foulkes estimate   =    -399.29643068 Ry
     estimated scf accuracy    <       0.79786852 Ry

     iteration # 24     ecut=    15.00 Ry     beta= 0.70
     Davidson diagonalization with overlap
     ethr =  3.05E-05,  avg # of iterations =  4.0

     total cpu time spent up to now is        3.2 secs

     total energy              =    -399.06105913 Ry
     Harris-Foulkes estimate   =    -399.22431393 Ry
     estimated scf accuracy    <       0.51939187 Ry

     iteration # 25     ecut=    15.00 Ry     beta= 0.70
     Davidson diagonalization with overlap
     ethr =  3.05E-05,  avg # of iterations =  5.0

     total cpu time spent up to now is        3.3 secs

     total energy              =    -399.09760123 Ry
     Harris-Foulkes estimate   =    -399.10024745 Ry
     estimated scf accuracy    <       0.05829932 Ry

     iteration # 26     ecut=    15.00 Ry     beta= 0.70
     Davidson diagonalization with overlap
     ethr =  3.05E-05,  avg # of iterations =  1.0

     total cpu time spent up to now is        3.3 secs

     total energy              =    -399.08519282 Ry
     Harris-Foulkes estimate   =    -399.09774853 Ry
     estimated scf accuracy    <       0.05189860 Ry

     iteration # 27     ecut=    15.00 Ry     beta= 0.70
     Davidson diagonalization with overlap
     ethr =  3.05E-05,  avg # of iterations =  3.0

     total cpu time spent up to now is        3.4 secs

     total energy              =    -399.08471483 Ry
     Harris-Foulkes estimate   =    -399.08677853 Ry
     estimated scf accuracy    <       0.01717324 Ry

     iteration # 28     ecut=    15.00 Ry     beta= 0.70
     Davidson diagonalization with overlap
     ethr =  3.05E-05,  avg # of iterations =  1.0

     total cpu time spent up to now is        3.5 secs

     total energy              =    -399.08342621 Ry
     Harris-Foulkes estimate   =    -399.08486590 Ry
     estimated scf accuracy    <       0.01172495 Ry

     iteration # 29     ecut=    15.00 Ry     beta= 0.70
     Davidson diagonalization with overlap
     ethr =  2.25E-05,  avg # of iterations =  6.0

     total cpu time spent up to now is        3.6 secs

     total energy              =    -399.17186936 Ry
     Harris-Foulkes estimate   =    -399.14901931 Ry
     estimated scf accuracy    <       0.94788590 Ry

     iteration # 30     ecut=    15.00 Ry     beta= 0.70
     Davidson diagonalization with overlap
     ethr =  2.25E-05,  avg # of iterations =  1.0

     total cpu time spent up to now is        3.6 secs

     total energy              =    -399.21161961 Ry
     Harris-Foulkes estimate   =    -399.17207419 Ry
     estimated scf accuracy    <       1.00483975 Ry

     iteration # 31     ecut=    15.00 Ry     beta= 0.70
     Davidson diagonalization with overlap
     ethr =  2.25E-05,  avg # of iterations =  3.0

     total cpu time spent up to now is        3.7 secs

     total energy              =    -399.21199021 Ry
     Harris-Foulkes estimate   =    -399.21264289 Ry
     estimated scf accuracy    <       1.14215774 Ry

     iteration # 32     ecut=    15.00 Ry     beta= 0.70
     Davidson diagonalization with overlap
     ethr =  2.25E-05,  avg # of iterations =  1.0

     total cpu time spent up to now is        3.7 secs

     total energy              =    -399.20969703 Ry
     Harris-Foulkes estimate   =    -399.21201715 Ry
     estimated scf accuracy    <       1.13778375 Ry

     iteration # 33     ecut=    15.00 Ry     beta= 0.70
     Davidson diagonalization with overlap
     ethr =  2.25E-05,  avg # of iterations =  1.0

     total cpu time spent up to now is        3.8 secs

     total energy              =    -399.21271540 Ry
     Harris-Foulkes estimate   =    -399.20972154 Ry
     estimated scf accuracy    <       1.12880339 Ry

     iteration # 34     ecut=    15.00 Ry     beta= 0.70
     Davidson diagonalization with overlap
     ethr =  2.25E-05,  avg # of iterations =  1.0

     total cpu time spent up to now is        3.8 secs

     total energy              =    -399.21571509 Ry
     Harris-Foulkes estimate   =    -399.21272599 Ry
     estimated scf accuracy    <       1.13414055 Ry

     iteration # 35     ecut=    15.00 Ry     beta= 0.70
     Davidson diagonalization with overlap
     ethr =  2.25E-05,  avg # of iterations =  1.0

     total cpu time spent up to now is        3.9 secs

     total energy              =    -399.21449193 Ry
     Harris-Foulkes estimate   =    -399.21572009 Ry
     estimated scf accuracy    <       1.14121491 Ry

     iteration # 36     ecut=    15.00 Ry     beta= 0.70
     Davidson diagonalization with overlap
     ethr =  2.25E-05,  avg # of iterations =  1.0

     total cpu time spent up to now is        4.0 secs

     total energy              =    -399.21368989 Ry
     Harris-Foulkes estimate   =    -399.21449517 Ry
     estimated scf accuracy    <       1.13831455 Ry

     iteration # 37     ecut=    15.00 Ry     beta= 0.70
     Davidson diagonalization with overlap
     ethr =  2.25E-05,  avg # of iterations =  1.0

     total cpu time spent up to now is        4.0 secs

     total energy              =    -398.67687584 Ry
     Harris-Foulkes estimate   =    -399.21369317 Ry
     estimated scf accuracy    <       1.13520284 Ry

     iteration # 38     ecut=    15.00 Ry     beta= 0.70
     Davidson diagonalization with overlap
     ethr =  2.25E-05,  avg # of iterations =  6.0

     total cpu time spent up to now is        4.1 secs

     total energy              =    -399.17079403 Ry
     Harris-Foulkes estimate   =    -399.40990209 Ry
     estimated scf accuracy    <       0.90036113 Ry

     iteration # 39     ecut=    15.00 Ry     beta= 0.70
     Davidson diagonalization with overlap
     ethr =  2.25E-05,  avg # of iterations =  4.0

     total cpu time spent up to now is        4.2 secs

     total energy              =    -399.13847795 Ry
     Harris-Foulkes estimate   =    -399.19369204 Ry
     estimated scf accuracy    <       0.33748315 Ry

     iteration # 40     ecut=    15.00 Ry     beta= 0.70
     Davidson diagonalization with overlap
     ethr =  2.25E-05,  avg # of iterations =  4.0

     total cpu time spent up to now is        4.3 secs

     total energy              =    -399.10689609 Ry
     Harris-Foulkes estimate   =    -399.14255327 Ry
     estimated scf accuracy    <       0.18150077 Ry

     iteration # 41     ecut=    15.00 Ry     beta= 0.70
     Davidson diagonalization with overlap
     ethr =  2.25E-05,  avg # of iterations =  6.0

     total cpu time spent up to now is        4.4 secs

     total energy              =    -399.35838237 Ry
     Harris-Foulkes estimate   =    -399.35317774 Ry
     estimated scf accuracy    <       1.01465441 Ry

     iteration # 42     ecut=    15.00 Ry     beta= 0.70
     Davidson diagonalization with overlap
     ethr =  2.25E-05,  avg # of iterations =  1.0

     total cpu time spent up to now is        4.5 secs

     total energy              =    -399.37065651 Ry
     Harris-Foulkes estimate   =    -399.35840591 Ry
     estimated scf accuracy    <       1.02697589 Ry

     iteration # 43     ecut=    15.00 Ry     beta= 0.70
     Davidson diagonalization with overlap
     ethr =  2.25E-05,  avg # of iterations =  1.0

     total cpu time spent up to now is        4.5 secs

     total energy              =    -399.38459354 Ry
     Harris-Foulkes estimate   =    -399.37076814 Ry
     estimated scf accuracy    <       1.06984171 Ry

     iteration # 44     ecut=    15.00 Ry     beta= 0.70
     Davidson diagonalization with overlap
     ethr =  2.25E-05,  avg # of iterations =  3.0

     total cpu time spent up to now is        4.6 secs

     total energy              =    -399.40564443 Ry
     Harris-Foulkes estimate   =    -399.38478998 Ry
     estimated scf accuracy    <       1.12439465 Ry

     iteration # 45     ecut=    15.00 Ry     beta= 0.70
     Davidson diagonalization with overlap
     ethr =  2.25E-05,  avg # of iterations =  3.0

     total cpu time spent up to now is        4.7 secs

     total energy              =    -399.42893151 Ry
     Harris-Foulkes estimate   =    -399.40597090 Ry
     estimated scf accuracy    <       1.20388242 Ry

     iteration # 46     ecut=    15.00 Ry     beta= 0.70
     Davidson diagonalization with overlap
     ethr =  2.25E-05,  avg # of iterations =  2.0

     total cpu time spent up to now is        4.7 secs

     total energy              =    -400.03203728 Ry
     Harris-Foulkes estimate   =    -399.42922036 Ry
     estimated scf accuracy    <       1.28607171 Ry

     iteration # 47     ecut=    15.00 Ry     beta= 0.70
     Davidson diagonalization with overlap
     ethr =  2.25E-05,  avg # of iterations =  6.0

     total cpu time spent up to now is        4.9 secs

     total energy              =    -400.10474106 Ry
     Harris-Foulkes estimate   =    -400.19215828 Ry
     estimated scf accuracy    <       5.84598850 Ry

     iteration # 48     ecut=    15.00 Ry     beta= 0.70
     Davidson diagonalization with overlap
     ethr =  2.25E-05,  avg # of iterations =  6.0

     total cpu time spent up to now is        4.9 secs

     total energy              =    -399.93352445 Ry
     Harris-Foulkes estimate   =    -400.11316509 Ry
     estimated scf accuracy    <       4.32831052 Ry

     iteration # 49     ecut=    15.00 Ry     beta= 0.70
     Davidson diagonalization with overlap
     ethr =  2.25E-05,  avg # of iterations =  4.0

     total cpu time spent up to now is        5.0 secs

     total energy              =    -398.79545823 Ry
     Harris-Foulkes estimate   =    -399.94174703 Ry
     estimated scf accuracy    <       3.37012336 Ry

     iteration # 50     ecut=    15.00 Ry     beta= 0.70
     Davidson diagonalization with overlap
     ethr =  2.25E-05,  avg # of iterations =  6.0

     total cpu time spent up to now is        5.1 secs

     total energy              =    -399.15736312 Ry
     Harris-Foulkes estimate   =    -399.31806725 Ry
     estimated scf accuracy    <       0.76875100 Ry

     iteration # 51     ecut=    15.00 Ry     beta= 0.70
     Davidson diagonalization with overlap
     ethr =  2.25E-05,  avg # of iterations =  4.0

     total cpu time spent up to now is        5.2 secs

     total energy              =    -399.10592376 Ry
     Harris-Foulkes estimate   =    -399.17210633 Ry
     estimated scf accuracy    <       0.32911223 Ry

     iteration # 52     ecut=    15.00 Ry     beta= 0.70
     Davidson diagonalization with overlap
     ethr =  2.25E-05,  avg # of iterations =  4.0

     total cpu time spent up to now is        5.3 secs

     total energy              =    -399.09458105 Ry
     Harris-Foulkes estimate   =    -399.11512363 Ry
     estimated scf accuracy    <       0.11569821 Ry

     iteration # 53     ecut=    15.00 Ry     beta= 0.70
     Davidson diagonalization with overlap
     ethr =  2.25E-05,  avg # of iterations =  3.0

     total cpu time spent up to now is        5.4 secs

     total energy              =    -399.08459347 Ry
     Harris-Foulkes estimate   =    -399.09681837 Ry
     estimated scf accuracy    <       0.04991976 Ry

     iteration # 54     ecut=    15.00 Ry     beta= 0.70
     Davidson diagonalization with overlap
     ethr =  2.25E-05,  avg # of iterations =  7.0

     total cpu time spent up to now is        5.5 secs

     total energy              =    -399.04313417 Ry
     Harris-Foulkes estimate   =    -399.11970301 Ry
     estimated scf accuracy    <       0.85526396 Ry

     iteration # 55     ecut=    15.00 Ry     beta= 0.70
     Davidson diagonalization with overlap
     ethr =  2.25E-05,  avg # of iterations =  4.0

     total cpu time spent up to now is        5.6 secs

     total energy              =    -399.09871444 Ry
     Harris-Foulkes estimate   =    -399.04677808 Ry
     estimated scf accuracy    <       0.62811467 Ry

     iteration # 56     ecut=    15.00 Ry     beta= 0.70
     Davidson diagonalization with overlap
     ethr =  2.25E-05,  avg # of iterations =  3.0

     total cpu time spent up to now is        5.6 secs

     total energy              =    -398.96762596 Ry
     Harris-Foulkes estimate   =    -399.10122355 Ry
     estimated scf accuracy    <       0.80193483 Ry

     iteration # 57     ecut=    15.00 Ry     beta= 0.70
     Davidson diagonalization with overlap
     ethr =  2.25E-05,  avg # of iterations =  6.0

     total cpu time spent up to now is        5.8 secs

     total energy              =    -399.14629056 Ry
     Harris-Foulkes estimate   =    -399.28918153 Ry
     estimated scf accuracy    <       0.77731204 Ry

     iteration # 58     ecut=    15.00 Ry     beta= 0.70
     Davidson diagonalization with overlap
     ethr =  2.25E-05,  avg # of iterations =  5.0

     total cpu time spent up to now is        5.9 secs

     total energy              =    -399.18704778 Ry
     Harris-Foulkes estimate   =    -399.16483195 Ry
     estimated scf accuracy    <       0.31341662 Ry

     iteration # 59     ecut=    15.00 Ry     beta= 0.70
     Davidson diagonalization with overlap
     ethr =  2.25E-05,  avg # of iterations =  3.0

     total cpu time spent up to now is        6.0 secs

     total energy              =    -399.15731409 Ry
     Harris-Foulkes estimate   =    -399.18847816 Ry
     estimated scf accuracy    <       0.40400801 Ry

     iteration # 60     ecut=    15.00 Ry     beta= 0.70
     Davidson diagonalization with overlap
     ethr =  2.25E-05,  avg # of iterations =  3.0

     total cpu time spent up to now is        6.1 secs

     total energy              =    -399.20031619 Ry
     Harris-Foulkes estimate   =    -399.15859871 Ry
     estimated scf accuracy    <       0.29307597 Ry

     iteration # 61     ecut=    15.00 Ry     beta= 0.70
     Davidson diagonalization with overlap
     ethr =  2.25E-05,  avg # of iterations =  4.0

     total cpu time spent up to now is        6.1 secs

     total energy              =    -399.08140410 Ry
     Harris-Foulkes estimate   =    -399.20281693 Ry
     estimated scf accuracy    <       0.45562369 Ry

     iteration # 62     ecut=    15.00 Ry     beta= 0.70
     Davidson diagonalization with overlap
     ethr =  2.25E-05,  avg # of iterations =  6.0

     total cpu time spent up to now is        6.3 secs

     total energy              =    -399.35674381 Ry
     Harris-Foulkes estimate   =    -399.34564150 Ry
     estimated scf accuracy    <       0.93111352 Ry

     iteration # 63     ecut=    15.00 Ry     beta= 0.70
     Davidson diagonalization with overlap
     ethr =  2.25E-05,  avg # of iterations =  1.0

     total cpu time spent up to now is        6.3 secs

     total energy              =    -399.31839424 Ry
     Harris-Foulkes estimate   =    -399.35685469 Ry
     estimated scf accuracy    <       0.96380360 Ry

     iteration # 64     ecut=    15.00 Ry     beta= 0.70
     Davidson diagonalization with overlap
     ethr =  2.25E-05,  avg # of iterations =  3.0

     total cpu time spent up to now is        6.4 secs

     total energy              =    -399.27086661 Ry
     Harris-Foulkes estimate   =    -399.31906435 Ry
     estimated scf accuracy    <       0.83979991 Ry

     iteration # 65     ecut=    15.00 Ry     beta= 0.70
     Davidson diagonalization with overlap
     ethr =  2.25E-05,  avg # of iterations =  4.0

     total cpu time spent up to now is        6.5 secs

     total energy              =    -399.52167362 Ry
     Harris-Foulkes estimate   =    -399.27254353 Ry
     estimated scf accuracy    <       0.66818170 Ry

     iteration # 66     ecut=    15.00 Ry     beta= 0.70
     Davidson diagonalization with overlap
     ethr =  2.25E-05,  avg # of iterations =  5.0

     total cpu time spent up to now is        6.6 secs

     total energy              =    -399.51253398 Ry
     Harris-Foulkes estimate   =    -399.56262816 Ry
     estimated scf accuracy    <       1.75451390 Ry

     iteration # 67     ecut=    15.00 Ry     beta= 0.70
     Davidson diagonalization with overlap
     ethr =  2.25E-05,  avg # of iterations =  4.0

     total cpu time spent up to now is        6.7 secs

     total energy              =    -399.39378784 Ry
     Harris-Foulkes estimate   =    -399.51345467 Ry
     estimated scf accuracy    <       1.56834734 Ry

     iteration # 68     ecut=    15.00 Ry     beta= 0.70
     Davidson diagonalization with overlap
     ethr =  2.25E-05,  avg # of iterations =  4.0

     total cpu time spent up to now is        6.7 secs

     total energy              =    -399.41312901 Ry
     Harris-Foulkes estimate   =    -399.39900524 Ry
     estimated scf accuracy    <       1.15095495 Ry

     iteration # 69     ecut=    15.00 Ry     beta= 0.70
     Davidson diagonalization with overlap
     ethr =  2.25E-05,  avg # of iterations =  1.0

     total cpu time spent up to now is        6.8 secs

     total energy              =    -399.39697010 Ry
     Harris-Foulkes estimate   =    -399.41321116 Ry
     estimated scf accuracy    <       1.18719375 Ry

     iteration # 70     ecut=    15.00 Ry     beta= 0.70
     Davidson diagonalization with overlap
     ethr =  2.25E-05,  avg # of iterations =  1.0

     total cpu time spent up to now is        6.8 secs

     total energy              =    -398.88655757 Ry
     Harris-Foulkes estimate   =    -399.39714840 Ry
     estimated scf accuracy    <       1.15575656 Ry

     iteration # 71     ecut=    15.00 Ry     beta= 0.70
     Davidson diagonalization with overlap
     ethr =  2.25E-05,  avg # of iterations =  6.0

     total cpu time spent up to now is        7.0 secs

     total energy              =    -399.20524246 Ry
     Harris-Foulkes estimate   =    -399.52753936 Ry
     estimated scf accuracy    <       1.64538679 Ry

     iteration # 72     ecut=    15.00 Ry     beta= 0.70
     Davidson diagonalization with overlap
     ethr =  2.25E-05,  avg # of iterations =  4.0

     total cpu time spent up to now is        7.1 secs

     total energy              =    -399.16932887 Ry
     Harris-Foulkes estimate   =    -399.24765545 Ry
     estimated scf accuracy    <       0.60340636 Ry

     iteration # 73     ecut=    15.00 Ry     beta= 0.70
     Davidson diagonalization with overlap
     ethr =  2.25E-05,  avg # of iterations =  4.0

     total cpu time spent up to now is        7.2 secs

     total energy              =    -399.12916114 Ry
     Harris-Foulkes estimate   =    -399.17497140 Ry
     estimated scf accuracy    <       0.34068620 Ry

     iteration # 74     ecut=    15.00 Ry     beta= 0.70
     Davidson diagonalization with overlap
     ethr =  2.25E-05,  avg # of iterations =  4.0

     total cpu time spent up to now is        7.2 secs

     total energy              =    -399.12175476 Ry
     Harris-Foulkes estimate   =    -399.13267144 Ry
     estimated scf accuracy    <       0.18668817 Ry

     iteration # 75     ecut=    15.00 Ry     beta= 0.70
     Davidson diagonalization with overlap
     ethr =  2.25E-05,  avg # of iterations =  3.0

     total cpu time spent up to now is        7.3 secs

     total energy              =    -399.08706735 Ry
     Harris-Foulkes estimate   =    -399.12206587 Ry
     estimated scf accuracy    <       0.15132258 Ry

     iteration # 76     ecut=    15.00 Ry     beta= 0.70
     Davidson diagonalization with overlap
     ethr =  2.25E-05,  avg # of iterations =  7.0

     total cpu time spent up to now is        7.4 secs

     total energy              =    -399.07400193 Ry
     Harris-Foulkes estimate   =    -399.10214288 Ry
     estimated scf accuracy    <       0.76949889 Ry

     iteration # 77     ecut=    15.00 Ry     beta= 0.70
     Davidson diagonalization with overlap
     ethr =  2.25E-05,  avg # of iterations =  3.0

     total cpu time spent up to now is        7.5 secs

     total energy              =    -399.06043319 Ry
     Harris-Foulkes estimate   =    -399.07483072 Ry
     estimated scf accuracy    <       0.68206432 Ry

     iteration # 78     ecut=    15.00 Ry     beta= 0.70
     Davidson diagonalization with overlap
     ethr =  2.25E-05,  avg # of iterations =  3.0

     total cpu time spent up to now is        7.5 secs

     total energy              =    -399.03931144 Ry
     Harris-Foulkes estimate   =    -399.06071663 Ry
     estimated scf accuracy    <       0.63780048 Ry

     iteration # 79     ecut=    15.00 Ry     beta= 0.70
     Davidson diagonalization with overlap
     ethr =  2.25E-05,  avg # of iterations =  3.0

     total cpu time spent up to now is        7.6 secs

     total energy              =    -399.17919378 Ry
     Harris-Foulkes estimate   =    -399.04015427 Ry
     estimated scf accuracy    <       0.56674220 Ry

     iteration # 80     ecut=    15.00 Ry     beta= 0.70
     Davidson diagonalization with overlap
     ethr =  2.25E-05,  avg # of iterations =  6.0

     total cpu time spent up to now is        7.7 secs

     total energy              =    -399.31021729 Ry
     Harris-Foulkes estimate   =    -399.50736384 Ry
     estimated scf accuracy    <       1.55463639 Ry

     iteration # 81     ecut=    15.00 Ry     beta= 0.70
     Davidson diagonalization with overlap
     ethr =  2.25E-05,  avg # of iterations =  4.0

     total cpu time spent up to now is        7.8 secs

     total energy              =    -399.43196950 Ry
     Harris-Foulkes estimate   =    -399.32501328 Ry
     estimated scf accuracy    <       0.88735662 Ry

     iteration # 82     ecut=    15.00 Ry     beta= 0.70
     Davidson diagonalization with overlap
     ethr =  2.25E-05,  avg # of iterations =  4.0

     total cpu time spent up to now is        7.9 secs

     total energy              =    -399.44870793 Ry
     Harris-Foulkes estimate   =    -399.43801777 Ry
     estimated scf accuracy    <       1.29668678 Ry

     iteration # 83     ecut=    15.00 Ry     beta= 0.70
     Davidson diagonalization with overlap
     ethr =  2.25E-05,  avg # of iterations =  1.0

     total cpu time spent up to now is        8.0 secs

     total energy              =    -399.40321280 Ry
     Harris-Foulkes estimate   =    -399.44875799 Ry
     estimated scf accuracy    <       1.32523635 Ry

     iteration # 84     ecut=    15.00 Ry     beta= 0.70
     Davidson diagonalization with overlap
     ethr =  2.25E-05,  avg # of iterations =  3.0

     total cpu time spent up to now is        8.0 secs

     total energy              =    -398.88241371 Ry
     Harris-Foulkes estimate   =    -399.40386568 Ry
     estimated scf accuracy    <       1.17822394 Ry

     iteration # 85     ecut=    15.00 Ry     beta= 0.70
     Davidson diagonalization with overlap
     ethr =  2.25E-05,  avg # of iterations =  6.0

     total cpu time spent up to now is        8.1 secs

     total energy              =    -399.51318978 Ry
     Harris-Foulkes estimate   =    -399.52721707 Ry
     estimated scf accuracy    <       1.66384333 Ry

     iteration # 86     ecut=    15.00 Ry     beta= 0.70
     Davidson diagonalization with overlap
     ethr =  2.25E-05,  avg # of iterations =  1.0

     total cpu time spent up to now is        8.2 secs

     total energy              =    -399.40991435 Ry
     Harris-Foulkes estimate   =    -399.51324450 Ry
     estimated scf accuracy    <       1.62641156 Ry

     iteration # 87     ecut=    15.00 Ry     beta= 0.70
     Davidson diagonalization with overlap
     ethr =  2.25E-05,  avg # of iterations =  4.0

     total cpu time spent up to now is        8.3 secs

     total energy              =    -399.31516653 Ry
     Harris-Foulkes estimate   =    -399.41435136 Ry
     estimated scf accuracy    <       1.24580425 Ry

     iteration # 88     ecut=    15.00 Ry     beta= 0.70
     Davidson diagonalization with overlap
     ethr =  2.25E-05,  avg # of iterations =  4.0

     total cpu time spent up to now is        8.4 secs

     total energy              =    -399.13845625 Ry
     Harris-Foulkes estimate   =    -399.31995378 Ry
     estimated scf accuracy    <       0.88678890 Ry

     iteration # 89     ecut=    15.00 Ry     beta= 0.70
     Davidson diagonalization with overlap
     ethr =  2.25E-05,  avg # of iterations =  4.0

     total cpu time spent up to now is        8.5 secs

     total energy              =    -399.14389155 Ry
     Harris-Foulkes estimate   =    -399.16293684 Ry
     estimated scf accuracy    <       0.29749580 Ry

     iteration # 90     ecut=    15.00 Ry     beta= 0.70
     Davidson diagonalization with overlap
     ethr =  2.25E-05,  avg # of iterations =  3.0

     total cpu time spent up to now is        8.5 secs

     total energy              =    -399.11842941 Ry
     Harris-Foulkes estimate   =    -399.14450432 Ry
     estimated scf accuracy    <       0.23235425 Ry

     iteration # 91     ecut=    15.00 Ry     beta= 0.70
     Davidson diagonalization with overlap
     ethr =  2.25E-05,  avg # of iterations =  3.0

     total cpu time spent up to now is        8.6 secs

     total energy              =    -399.11635751 Ry
     Harris-Foulkes estimate   =    -399.12020920 Ry
     estimated scf accuracy    <       0.14170791 Ry

     iteration # 92     ecut=    15.00 Ry     beta= 0.70
     Davidson diagonalization with overlap
     ethr =  2.25E-05,  avg # of iterations =  1.0

     total cpu time spent up to now is        8.6 secs

     total energy              =    -399.12129405 Ry
     Harris-Foulkes estimate   =    -399.11640518 Ry
     estimated scf accuracy    <       0.13207992 Ry

     iteration # 93     ecut=    15.00 Ry     beta= 0.70
     Davidson diagonalization with overlap
     ethr =  2.25E-05,  avg # of iterations =  1.0

     total cpu time spent up to now is        8.7 secs

     total energy              =    -399.05944294 Ry
     Harris-Foulkes estimate   =    -399.12133227 Ry
     estimated scf accuracy    <       0.14236800 Ry

     iteration # 94     ecut=    15.00 Ry     beta= 0.70
     Davidson diagonalization with overlap
     ethr =  2.25E-05,  avg # of iterations =  5.0

     total cpu time spent up to now is        8.8 secs

     total energy              =    -399.34527798 Ry
     Harris-Foulkes estimate   =    -399.49500276 Ry
     estimated scf accuracy    <       1.50143274 Ry

     iteration # 95     ecut=    15.00 Ry     beta= 0.70
     Davidson diagonalization with overlap
     ethr =  2.25E-05,  avg # of iterations =  4.0

     total cpu time spent up to now is        8.9 secs

     total energy              =    -399.31279624 Ry
     Harris-Foulkes estimate   =    -399.35347399 Ry
     estimated scf accuracy    <       0.99052417 Ry

     iteration # 96     ecut=    15.00 Ry     beta= 0.70
     Davidson diagonalization with overlap
     ethr =  2.25E-05,  avg # of iterations =  3.0

     total cpu time spent up to now is        9.0 secs

     total energy              =    -399.28374139 Ry
     Harris-Foulkes estimate   =    -399.31365219 Ry
     estimated scf accuracy    <       0.84835135 Ry

     iteration # 97     ecut=    15.00 Ry     beta= 0.70
     Davidson diagonalization with overlap
     ethr =  2.25E-05,  avg # of iterations =  3.0

     total cpu time spent up to now is        9.0 secs

     total energy              =    -399.29473365 Ry
     Harris-Foulkes estimate   =    -399.28437793 Ry
     estimated scf accuracy    <       0.73961114 Ry

     iteration # 98     ecut=    15.00 Ry     beta= 0.70
     Davidson diagonalization with overlap
     ethr =  2.25E-05,  avg # of iterations =  1.0

     total cpu time spent up to now is        9.1 secs

     total energy              =    -399.28453758 Ry
     Harris-Foulkes estimate   =    -399.29479938 Ry
     estimated scf accuracy    <       0.76808551 Ry

     iteration # 99     ecut=    15.00 Ry     beta= 0.70
     Davidson diagonalization with overlap
     ethr =  2.25E-05,  avg # of iterations =  1.0

     total cpu time spent up to now is        9.1 secs

     total energy              =    -399.31272678 Ry
     Harris-Foulkes estimate   =    -399.28457305 Ry
     estimated scf accuracy    <       0.74618738 Ry

     iteration #100     ecut=    15.00 Ry     beta= 0.70
     Davidson diagonalization with overlap
     ethr =  2.25E-05,  avg # of iterations =  3.0

     total cpu time spent up to now is        9.2 secs

     total energy              =    -399.31321209 Ry
     Harris-Foulkes estimate   =    -399.31310341 Ry
     estimated scf accuracy    <       0.83544580 Ry

     End of self-consistent calculation

     convergence NOT achieved after 100 iterations: stopping

     Writing output data file SnO2.save
 
     init_run     :      0.07s CPU      0.32s WALL (       1 calls)
     electrons    :      3.85s CPU      8.23s WALL (       1 calls)

     Called by init_run:
     wfcinit      :      0.01s CPU      0.20s WALL (       1 calls)
     potinit      :      0.01s CPU      0.03s WALL (       1 calls)
     hinit0       :      0.04s CPU      0.09s WALL (       1 calls)

     Called by electrons:
     c_bands      :      3.00s CPU      6.34s WALL (     100 calls)
     sum_band     :      0.38s CPU      0.77s WALL (     100 calls)
     v_of_rho     :      0.34s CPU      0.68s WALL (     101 calls)
     mix_rho      :      0.10s CPU      0.27s WALL (     100 calls)

     Called by c_bands:
     init_us_2    :      0.02s CPU      0.08s WALL (     201 calls)
     cegterg      :      2.81s CPU      5.86s WALL (     100 calls)

     Called by sum_band:

     Called by *egterg:
     h_psi        :      1.55s CPU      3.31s WALL (     445 calls)
     g_psi        :      0.01s CPU      0.02s WALL (     344 calls)
     cdiaghg      :      0.93s CPU      2.14s WALL (     444 calls)

     Called by h_psi:
     h_psi:pot    :      1.55s CPU      3.30s WALL (     445 calls)
     h_psi:calbec :      0.13s CPU      0.17s WALL (     445 calls)
     vloc_psi     :      1.39s CPU      3.02s WALL (     445 calls)
     add_vuspsi   :      0.02s CPU      0.11s WALL (     445 calls)

     General routines
     calbec       :      0.13s CPU      0.17s WALL (     445 calls)
     fft          :      0.18s CPU      0.49s WALL (    1012 calls)
     ffts         :      0.02s CPU      0.03s WALL (     100 calls)
     fftw         :      1.68s CPU      3.49s WALL (   16410 calls)
     davcio       :      0.00s CPU      0.00s WALL (      19 calls)
 
     Parallel routines
     fft_scatt_xy :      0.01s CPU      0.13s WALL (   17522 calls)
     fft_scatt_yz :      1.76s CPU      2.63s WALL (   17522 calls)
 
     PWSCF        :     4.19s CPU         9.42s WALL

 
   This run was terminated on:  21:48:55   6Apr2018            

=------------------------------------------------------------------------------=
   JOB DONE.
=------------------------------------------------------------------------------=
