
     Program PWSCF v.6.2.2 starts on 21Apr2018 at 12:24:43 

     This program is part of the open-source Quantum ESPRESSO suite
     for quantum simulation of materials; please cite
         "P. Giannozzi et al., J. Phys.:Condens. Matter 21 395502 (2009);
         "P. Giannozzi et al., J. Phys.:Condens. Matter 29 465901 (2017);
          URL http://www.quantum-espresso.org", 
     in publications or presentations arising from this work. More details at
     http://www.quantum-espresso.org/quote

     Parallel version (MPI), running on     2 processors

     MPI processes distributed on     1 nodes
     R & G space division:  proc/nbgrp/npool/nimage =       2
     Reading input from Conv_etot-kp.in
Warning: card &IONS ignored
Warning: card / ignored
Warning: card &CELL ignored
Warning: card / ignored

     Current dimensions of program PWSCF are:
     Max number of different atomic species (ntypx) = 10
     Max number of k-points (npk) =  40000
     Max angular momentum in pseudopotentials (lmaxx) =  3

     Subspace diagonalization in iterative solution of the eigenvalue problem:
     a serial algorithm will be used

 
     Parallelization info
     --------------------
     sticks:   dense  smooth     PW     G-vecs:    dense   smooth      PW
     Min         332     332    110                 4313     4313     791
     Max         333     333    111                 4314     4314     792
     Sum         665     665    221                 8627     8627    1583
 


     bravais-lattice index     =            6
     lattice parameter (alat)  =       9.1100  a.u.
     unit-cell volume          =     506.5589 (a.u.)^3
     number of atoms/cell      =            6
     number of atomic types    =            2
     number of electrons       =        52.00
     number of Kohn-Sham states=           26
     kinetic-energy cutoff     =      25.0000  Ry
     charge density cutoff     =     100.0000  Ry
     convergence threshold     =      1.0E-12
     mixing beta               =       0.7000
     number of iterations used =            8  plain     mixing
     Exchange-correlation      = PBE ( 1  4  3  4 0 0)

     celldm(1)=   9.110000  celldm(2)=   0.000000  celldm(3)=   0.670000
     celldm(4)=   0.000000  celldm(5)=   0.000000  celldm(6)=   0.000000

     crystal axes: (cart. coord. in units of alat)
               a(1) = (   1.000000   0.000000   0.000000 )  
               a(2) = (   0.000000   1.000000   0.000000 )  
               a(3) = (   0.000000   0.000000   0.670000 )  

     reciprocal axes: (cart. coord. in units 2 pi/alat)
               b(1) = (  1.000000  0.000000  0.000000 )  
               b(2) = (  0.000000  1.000000  0.000000 )  
               b(3) = (  0.000000  0.000000  1.492537 )  


     PseudoPot. # 1 for Sn read from file:
     ../../Pseudo_potentials/Sn_PBE.upf
     MD5 check sum: 78e6386ae56e929f0568ae8bf606a80c
     Pseudo is Norm-conserving + core correction, Zval = 14.0
     Generated using ONCVPSP code by D. R. Hamann
     Using radial grid of 1628 points,  6 beta functions with: 
                l(1) =   0
                l(2) =   0
                l(3) =   1
                l(4) =   1
                l(5) =   2
                l(6) =   2

     PseudoPot. # 2 for O  read from file:
     ../../Pseudo_potentials/O_PBE.upf
     MD5 check sum: 3e3f909f7470e8921608ab6b1f57bbae
     Pseudo is Norm-conserving + core correction, Zval =  6.0
     Generated using ONCVPSP code by D. R. Hamann
     Using radial grid of  936 points,  5 beta functions with: 
                l(1) =   0
                l(2) =   0
                l(3) =   1
                l(4) =   1
                l(5) =   2

     atomic species   valence    mass     pseudopotential
        Sn            14.00   118.71000     Sn( 1.00)
        O              6.00    15.99900     O ( 1.00)

      4 Sym. Ops. (no inversion) found



   Cartesian axes

     site n.     atom                  positions (alat units)
         1           Sn  tau(   1) = (   0.0000000   0.0000000   0.0000000  )
         2           Sn  tau(   2) = (   0.5000000   0.5000000   0.3350000  )
         3           O   tau(   3) = (   0.8060000   0.1930000   0.3350000  )
         4           O   tau(   4) = (   0.1930000   0.8060000   0.3350000  )
         5           O   tau(   5) = (   0.3060000   0.3060000   0.0000000  )
         6           O   tau(   6) = (   0.6930000   0.6930000   0.0000000  )

     number of k points=   105

     Number of k-points >= 100: set verbosity='high' to print them.

     Dense  grid:     8627 G-vectors     FFT dimensions: (  30,  30,  20)

     Estimated max dynamical RAM per process >      30.27 MB

     Estimated total dynamical RAM >      60.54 MB

     Check: negative/imaginary core charge=   -0.002394    0.000000

     Initial potential from superposition of free atoms
     Check: negative starting charge=   -0.009566

     starting charge   51.99690, renormalised to   52.00000

     negative rho (up, down):  9.566E-03 0.000E+00
     Starting wfc are   34 randomized atomic wfcs

     total cpu time spent up to now is        2.0 secs

     Self-consistent Calculation

     iteration #  1     ecut=    25.00 Ry     beta= 0.70
     Davidson diagonalization with overlap
     ethr =  1.00E-02,  avg # of iterations =  2.0

     negative rho (up, down):  2.854E-03 0.000E+00

     total cpu time spent up to now is        6.8 secs

     total energy              =    -429.61704483 Ry
     Harris-Foulkes estimate   =    -432.64989126 Ry
     estimated scf accuracy    <       4.17503363 Ry

     iteration #  2     ecut=    25.00 Ry     beta= 0.70
     Davidson diagonalization with overlap
     ethr =  8.03E-03,  avg # of iterations =  2.0

     negative rho (up, down):  8.834E-04 0.000E+00

     total cpu time spent up to now is       11.1 secs

     total energy              =    -430.39323575 Ry
     Harris-Foulkes estimate   =    -430.53459966 Ry
     estimated scf accuracy    <       0.25031620 Ry

     iteration #  3     ecut=    25.00 Ry     beta= 0.70
     Davidson diagonalization with overlap
     ethr =  4.81E-04,  avg # of iterations =  2.8

     negative rho (up, down):  1.576E-04 0.000E+00

     total cpu time spent up to now is       15.8 secs

     total energy              =    -430.43921551 Ry
     Harris-Foulkes estimate   =    -430.45276488 Ry
     estimated scf accuracy    <       0.02919205 Ry

     iteration #  4     ecut=    25.00 Ry     beta= 0.70
     Davidson diagonalization with overlap
     ethr =  5.61E-05,  avg # of iterations =  2.8

     total cpu time spent up to now is       20.5 secs

     total energy              =    -430.44447701 Ry
     Harris-Foulkes estimate   =    -430.44622387 Ry
     estimated scf accuracy    <       0.00342338 Ry

     iteration #  5     ecut=    25.00 Ry     beta= 0.70
     Davidson diagonalization with overlap
     ethr =  6.58E-06,  avg # of iterations =  3.1

     total cpu time spent up to now is       25.3 secs

     total energy              =    -430.44544158 Ry
     Harris-Foulkes estimate   =    -430.44554783 Ry
     estimated scf accuracy    <       0.00020519 Ry

     iteration #  6     ecut=    25.00 Ry     beta= 0.70
     Davidson diagonalization with overlap
     ethr =  3.95E-07,  avg # of iterations =  3.1

     total cpu time spent up to now is       30.2 secs

     total energy              =    -430.44549626 Ry
     Harris-Foulkes estimate   =    -430.44550363 Ry
     estimated scf accuracy    <       0.00001941 Ry

     iteration #  7     ecut=    25.00 Ry     beta= 0.70
     Davidson diagonalization with overlap
     ethr =  3.73E-08,  avg # of iterations =  3.0

     total cpu time spent up to now is       34.6 secs

     total energy              =    -430.44549695 Ry
     Harris-Foulkes estimate   =    -430.44549925 Ry
     estimated scf accuracy    <       0.00000461 Ry

     iteration #  8     ecut=    25.00 Ry     beta= 0.70
     Davidson diagonalization with overlap
     ethr =  8.86E-09,  avg # of iterations =  3.1

     total cpu time spent up to now is       39.4 secs

     total energy              =    -430.44549797 Ry
     Harris-Foulkes estimate   =    -430.44549797 Ry
     estimated scf accuracy    <       0.00000003 Ry

     iteration #  9     ecut=    25.00 Ry     beta= 0.70
     Davidson diagonalization with overlap
     ethr =  4.87E-11,  avg # of iterations =  3.4

     total cpu time spent up to now is       44.7 secs

     total energy              =    -430.44549798 Ry
     Harris-Foulkes estimate   =    -430.44549798 Ry
     estimated scf accuracy    <       0.00000001 Ry

     iteration # 10     ecut=    25.00 Ry     beta= 0.70
     Davidson diagonalization with overlap
     ethr =  2.03E-11,  avg # of iterations =  3.1

     total cpu time spent up to now is       49.6 secs

     total energy              =    -430.44549798 Ry
     Harris-Foulkes estimate   =    -430.44549798 Ry
     estimated scf accuracy    <          9.3E-10 Ry

     iteration # 11     ecut=    25.00 Ry     beta= 0.70
     Davidson diagonalization with overlap
     ethr =  1.79E-12,  avg # of iterations =  3.3

     total cpu time spent up to now is       54.6 secs

     total energy              =    -430.44549798 Ry
     Harris-Foulkes estimate   =    -430.44549798 Ry
     estimated scf accuracy    <          2.1E-10 Ry

     iteration # 12     ecut=    25.00 Ry     beta= 0.70
     Davidson diagonalization with overlap
     ethr =  4.12E-13,  avg # of iterations =  3.0

     total cpu time spent up to now is       59.2 secs

     total energy              =    -430.44549798 Ry
     Harris-Foulkes estimate   =    -430.44549798 Ry
     estimated scf accuracy    <          5.8E-12 Ry

     iteration # 13     ecut=    25.00 Ry     beta= 0.70
     Davidson diagonalization with overlap
     ethr =  1.00E-13,  avg # of iterations =  1.2

     total cpu time spent up to now is       62.6 secs

     End of self-consistent calculation

     Number of k-points >= 100: set verbosity='high' to print the bands.

     highest occupied level (ev):     9.7821

!    total energy              =    -430.44549798 Ry
     Harris-Foulkes estimate   =    -430.44549798 Ry
     estimated scf accuracy    <          1.0E-13 Ry

     The total energy is the sum of the following terms:

     one-electron contribution =     -96.63456328 Ry
     hartree contribution      =      85.50471617 Ry
     xc contribution           =    -116.83431253 Ry
     ewald contribution        =    -302.48133834 Ry

     convergence has been achieved in  13 iterations

     Writing output data file SnO2.save
 
     init_run     :      1.66s CPU      1.75s WALL (       1 calls)
     electrons    :     58.31s CPU     60.63s WALL (       1 calls)

     Called by init_run:
     wfcinit      :      1.59s CPU      1.67s WALL (       1 calls)
     potinit      :      0.02s CPU      0.02s WALL (       1 calls)
     hinit0       :      0.05s CPU      0.05s WALL (       1 calls)

     Called by electrons:
     c_bands      :     51.84s CPU     53.87s WALL (      13 calls)
     sum_band     :      6.38s CPU      6.65s WALL (      13 calls)
     v_of_rho     :      0.07s CPU      0.07s WALL (      14 calls)
     mix_rho      :      0.01s CPU      0.01s WALL (      13 calls)

     Called by c_bands:
     init_us_2    :      0.47s CPU      0.90s WALL (    2835 calls)
     cegterg      :     47.40s CPU     48.93s WALL (    1365 calls)

     Called by sum_band:

     Called by *egterg:
     h_psi        :     35.98s CPU     38.02s WALL (    5227 calls)
     g_psi        :      0.19s CPU      0.38s WALL (    3757 calls)
     cdiaghg      :      6.70s CPU      6.67s WALL (    5122 calls)

     Called by h_psi:
     h_psi:pot    :     35.89s CPU     37.85s WALL (    5227 calls)
     h_psi:calbec :      2.66s CPU      2.43s WALL (    5227 calls)
     vloc_psi     :     32.53s CPU     33.11s WALL (    5227 calls)
     add_vuspsi   :      0.69s CPU      2.29s WALL (    5227 calls)

     General routines
     calbec       :      2.66s CPU      2.43s WALL (    5227 calls)
     fft          :      0.03s CPU      0.03s WALL (     141 calls)
     ffts         :      0.00s CPU      0.00s WALL (      13 calls)
     fftw         :     38.18s CPU     36.54s WALL (  231358 calls)
 
     Parallel routines
     fft_scatt_xy :      0.49s CPU      3.11s WALL (  231512 calls)
     fft_scatt_yz :     32.36s CPU      5.41s WALL (  231512 calls)
 
     PWSCF        :  1m 0.25s CPU     1m 7.00s WALL

 
   This run was terminated on:  12:25:50  21Apr2018            

=------------------------------------------------------------------------------=
   JOB DONE.
=------------------------------------------------------------------------------=
