
     Program PWSCF v.6.2.2 starts on 21Apr2018 at 12:52: 5 

     This program is part of the open-source Quantum ESPRESSO suite
     for quantum simulation of materials; please cite
         "P. Giannozzi et al., J. Phys.:Condens. Matter 21 395502 (2009);
         "P. Giannozzi et al., J. Phys.:Condens. Matter 29 465901 (2017);
          URL http://www.quantum-espresso.org", 
     in publications or presentations arising from this work. More details at
     http://www.quantum-espresso.org/quote

     Parallel version (MPI), running on     2 processors

     MPI processes distributed on     1 nodes
     R & G space division:  proc/nbgrp/npool/nimage =       2
     Reading input from Conv_etot-kp.in
Warning: card &IONS ignored
Warning: card / ignored
Warning: card &CELL ignored
Warning: card / ignored

     Current dimensions of program PWSCF are:
     Max number of different atomic species (ntypx) = 10
     Max number of k-points (npk) =  40000
     Max angular momentum in pseudopotentials (lmaxx) =  3

     Subspace diagonalization in iterative solution of the eigenvalue problem:
     a serial algorithm will be used

 
     Parallelization info
     --------------------
     sticks:   dense  smooth     PW     G-vecs:    dense   smooth      PW
     Min         332     332    110                 4313     4313     791
     Max         333     333    111                 4314     4314     792
     Sum         665     665    221                 8627     8627    1583
 


     bravais-lattice index     =            6
     lattice parameter (alat)  =       9.1100  a.u.
     unit-cell volume          =     506.5589 (a.u.)^3
     number of atoms/cell      =            6
     number of atomic types    =            2
     number of electrons       =        52.00
     number of Kohn-Sham states=           26
     kinetic-energy cutoff     =      25.0000  Ry
     charge density cutoff     =     100.0000  Ry
     convergence threshold     =      1.0E-12
     mixing beta               =       0.7000
     number of iterations used =            8  plain     mixing
     Exchange-correlation      = PBE ( 1  4  3  4 0 0)

     celldm(1)=   9.110000  celldm(2)=   0.000000  celldm(3)=   0.670000
     celldm(4)=   0.000000  celldm(5)=   0.000000  celldm(6)=   0.000000

     crystal axes: (cart. coord. in units of alat)
               a(1) = (   1.000000   0.000000   0.000000 )  
               a(2) = (   0.000000   1.000000   0.000000 )  
               a(3) = (   0.000000   0.000000   0.670000 )  

     reciprocal axes: (cart. coord. in units 2 pi/alat)
               b(1) = (  1.000000  0.000000  0.000000 )  
               b(2) = (  0.000000  1.000000  0.000000 )  
               b(3) = (  0.000000  0.000000  1.492537 )  


     PseudoPot. # 1 for Sn read from file:
     ../../Pseudo_potentials/Sn_PBE.upf
     MD5 check sum: 78e6386ae56e929f0568ae8bf606a80c
     Pseudo is Norm-conserving + core correction, Zval = 14.0
     Generated using ONCVPSP code by D. R. Hamann
     Using radial grid of 1628 points,  6 beta functions with: 
                l(1) =   0
                l(2) =   0
                l(3) =   1
                l(4) =   1
                l(5) =   2
                l(6) =   2

     PseudoPot. # 2 for O  read from file:
     ../../Pseudo_potentials/O_PBE.upf
     MD5 check sum: 3e3f909f7470e8921608ab6b1f57bbae
     Pseudo is Norm-conserving + core correction, Zval =  6.0
     Generated using ONCVPSP code by D. R. Hamann
     Using radial grid of  936 points,  5 beta functions with: 
                l(1) =   0
                l(2) =   0
                l(3) =   1
                l(4) =   1
                l(5) =   2

     atomic species   valence    mass     pseudopotential
        Sn            14.00   118.71000     Sn( 1.00)
        O              6.00    15.99900     O ( 1.00)

      4 Sym. Ops. (no inversion) found



   Cartesian axes

     site n.     atom                  positions (alat units)
         1           Sn  tau(   1) = (   0.0000000   0.0000000   0.0000000  )
         2           Sn  tau(   2) = (   0.5000000   0.5000000   0.3350000  )
         3           O   tau(   3) = (   0.8060000   0.1930000   0.3350000  )
         4           O   tau(   4) = (   0.1930000   0.8060000   0.3350000  )
         5           O   tau(   5) = (   0.3060000   0.3060000   0.0000000  )
         6           O   tau(   6) = (   0.6930000   0.6930000   0.0000000  )

     number of k points=  1221

     Number of k-points >= 100: set verbosity='high' to print them.

     Dense  grid:     8627 G-vectors     FFT dimensions: (  30,  30,  20)

     Estimated max dynamical RAM per process >     266.70 MB

     Estimated total dynamical RAM >     533.40 MB

     Check: negative/imaginary core charge=   -0.002394    0.000000

     Initial potential from superposition of free atoms
     Check: negative starting charge=   -0.009566

     starting charge   51.99690, renormalised to   52.00000

     negative rho (up, down):  9.566E-03 0.000E+00
     Starting wfc are   34 randomized atomic wfcs

     total cpu time spent up to now is       20.0 secs

     Self-consistent Calculation

     iteration #  1     ecut=    25.00 Ry     beta= 0.70
     Davidson diagonalization with overlap
     ethr =  1.00E-02,  avg # of iterations =  2.0

     negative rho (up, down):  2.854E-03 0.000E+00

     total cpu time spent up to now is       76.0 secs

     total energy              =    -429.62671058 Ry
     Harris-Foulkes estimate   =    -432.65687527 Ry
     estimated scf accuracy    <       4.17155866 Ry

     iteration #  2     ecut=    25.00 Ry     beta= 0.70
     Davidson diagonalization with overlap
     ethr =  8.02E-03,  avg # of iterations =  2.0

     negative rho (up, down):  8.830E-04 0.000E+00

     total cpu time spent up to now is      128.6 secs

     total energy              =    -430.40187410 Ry
     Harris-Foulkes estimate   =    -430.54287084 Ry
     estimated scf accuracy    <       0.24982762 Ry

     iteration #  3     ecut=    25.00 Ry     beta= 0.70
     Davidson diagonalization with overlap
     ethr =  4.80E-04,  avg # of iterations =  2.8

     negative rho (up, down):  1.589E-04 0.000E+00

     total cpu time spent up to now is      185.3 secs

     total energy              =    -430.44790832 Ry
     Harris-Foulkes estimate   =    -430.46163902 Ry
     estimated scf accuracy    <       0.02950315 Ry

     iteration #  4     ecut=    25.00 Ry     beta= 0.70
     Davidson diagonalization with overlap
     ethr =  5.67E-05,  avg # of iterations =  2.9

     total cpu time spent up to now is      241.1 secs

     total energy              =    -430.45332637 Ry
     Harris-Foulkes estimate   =    -430.45512038 Ry
     estimated scf accuracy    <       0.00351128 Ry

     iteration #  5     ecut=    25.00 Ry     beta= 0.70
     Davidson diagonalization with overlap
     ethr =  6.75E-06,  avg # of iterations =  3.0

     total cpu time spent up to now is      296.3 secs

     total energy              =    -430.45415068 Ry
     Harris-Foulkes estimate   =    -430.45423591 Ry
     estimated scf accuracy    <       0.00017438 Ry

     iteration #  6     ecut=    25.00 Ry     beta= 0.70
     Davidson diagonalization with overlap
     ethr =  3.35E-07,  avg # of iterations =  3.0

     total cpu time spent up to now is      351.4 secs

     total energy              =    -430.45419469 Ry
     Harris-Foulkes estimate   =    -430.45419968 Ry
     estimated scf accuracy    <       0.00001090 Ry

     iteration #  7     ecut=    25.00 Ry     beta= 0.70
     Davidson diagonalization with overlap
     ethr =  2.10E-08,  avg # of iterations =  3.1

     total cpu time spent up to now is      404.6 secs

     total energy              =    -430.45420846 Ry
     Harris-Foulkes estimate   =    -430.45420938 Ry
     estimated scf accuracy    <       0.00000229 Ry

     iteration #  8     ecut=    25.00 Ry     beta= 0.70
     Davidson diagonalization with overlap
     ethr =  4.40E-09,  avg # of iterations =  3.0

     total cpu time spent up to now is      456.0 secs

     total energy              =    -430.45420884 Ry
     Harris-Foulkes estimate   =    -430.45420885 Ry
     estimated scf accuracy    <       0.00000005 Ry

     iteration #  9     ecut=    25.00 Ry     beta= 0.70
     Davidson diagonalization with overlap
     ethr =  8.86E-11,  avg # of iterations =  3.0

     total cpu time spent up to now is      513.1 secs

     total energy              =    -430.45420885 Ry
     Harris-Foulkes estimate   =    -430.45420885 Ry
     estimated scf accuracy    <          5.5E-09 Ry

     iteration # 10     ecut=    25.00 Ry     beta= 0.70
     Davidson diagonalization with overlap
     ethr =  1.05E-11,  avg # of iterations =  3.7

     total cpu time spent up to now is      573.6 secs

     total energy              =    -430.45420885 Ry
     Harris-Foulkes estimate   =    -430.45420885 Ry
     estimated scf accuracy    <          4.2E-09 Ry

     iteration # 11     ecut=    25.00 Ry     beta= 0.70
     Davidson diagonalization with overlap
     ethr =  7.99E-12,  avg # of iterations =  3.0

     total cpu time spent up to now is      625.4 secs

     total energy              =    -430.45420885 Ry
     Harris-Foulkes estimate   =    -430.45420885 Ry
     estimated scf accuracy    <          1.4E-10 Ry

     iteration # 12     ecut=    25.00 Ry     beta= 0.70
     Davidson diagonalization with overlap
     ethr =  2.65E-13,  avg # of iterations =  3.1

     total cpu time spent up to now is      677.7 secs

     total energy              =    -430.45420885 Ry
     Harris-Foulkes estimate   =    -430.45420885 Ry
     estimated scf accuracy    <          6.8E-12 Ry

     iteration # 13     ecut=    25.00 Ry     beta= 0.70
     Davidson diagonalization with overlap
     ethr =  1.00E-13,  avg # of iterations =  1.2

     total cpu time spent up to now is      717.3 secs

     End of self-consistent calculation

     Number of k-points >= 100: set verbosity='high' to print the bands.

     highest occupied level (ev):     9.8346

!    total energy              =    -430.45420885 Ry
     Harris-Foulkes estimate   =    -430.45420885 Ry
     estimated scf accuracy    <          1.8E-13 Ry

     The total energy is the sum of the following terms:

     one-electron contribution =     -96.64820908 Ry
     hartree contribution      =      85.51196854 Ry
     xc contribution           =    -116.83662998 Ry
     ewald contribution        =    -302.48133834 Ry

     convergence has been achieved in  13 iterations

     Writing output data file SnO2.save
 
     init_run     :     18.65s CPU     19.71s WALL (       1 calls)
     electrons    :    665.24s CPU    697.37s WALL (       1 calls)

     Called by init_run:
     wfcinit      :     18.53s CPU     19.58s WALL (       1 calls)
     potinit      :      0.02s CPU      0.02s WALL (       1 calls)
     hinit0       :      0.09s CPU      0.10s WALL (       1 calls)

     Called by electrons:
     c_bands      :    593.31s CPU    621.45s WALL (      13 calls)
     sum_band     :     71.86s CPU     75.77s WALL (      13 calls)
     v_of_rho     :      0.07s CPU      0.07s WALL (      14 calls)
     mix_rho      :      0.01s CPU      0.01s WALL (      13 calls)

     Called by c_bands:
     init_us_2    :      5.55s CPU     10.48s WALL (   32967 calls)
     cegterg      :    541.34s CPU    566.47s WALL (   15873 calls)

     Called by sum_band:

     Called by *egterg:
     h_psi        :    410.34s CPU    439.99s WALL (   60908 calls)
     g_psi        :      2.32s CPU      4.42s WALL (   43814 calls)
     cdiaghg      :     77.36s CPU     77.64s WALL (   59687 calls)

     Called by h_psi:
     h_psi:pot    :    409.30s CPU    438.07s WALL (   60908 calls)
     h_psi:calbec :     32.75s CPU     28.43s WALL (   60908 calls)
     vloc_psi     :    369.01s CPU    382.88s WALL (   60908 calls)
     add_vuspsi   :      7.48s CPU     26.57s WALL (   60908 calls)

     General routines
     calbec       :     32.75s CPU     28.34s WALL (   60908 calls)
     fft          :      0.04s CPU      0.03s WALL (     141 calls)
     ffts         :      0.00s CPU      0.00s WALL (      13 calls)
     fftw         :    433.23s CPU    422.13s WALL ( 2673628 calls)
 
     Parallel routines
     fft_scatt_xy :      4.84s CPU     34.96s WALL ( 2673782 calls)
     fft_scatt_yz :    374.71s CPU     62.49s WALL ( 2673782 calls)
 
     PWSCF        : 11m24.94s CPU    12m37.19s WALL

 
   This run was terminated on:  13: 4:43  21Apr2018            

=------------------------------------------------------------------------------=
   JOB DONE.
=------------------------------------------------------------------------------=
