
     Program PWSCF v.6.2.2 starts on 21Apr2018 at 12:23:46 

     This program is part of the open-source Quantum ESPRESSO suite
     for quantum simulation of materials; please cite
         "P. Giannozzi et al., J. Phys.:Condens. Matter 21 395502 (2009);
         "P. Giannozzi et al., J. Phys.:Condens. Matter 29 465901 (2017);
          URL http://www.quantum-espresso.org", 
     in publications or presentations arising from this work. More details at
     http://www.quantum-espresso.org/quote

     Parallel version (MPI), running on     2 processors

     MPI processes distributed on     1 nodes
     R & G space division:  proc/nbgrp/npool/nimage =       2
     Reading input from Conv_etot-kp.in
Warning: card &IONS ignored
Warning: card / ignored
Warning: card &CELL ignored
Warning: card / ignored

     Current dimensions of program PWSCF are:
     Max number of different atomic species (ntypx) = 10
     Max number of k-points (npk) =  40000
     Max angular momentum in pseudopotentials (lmaxx) =  3

     Subspace diagonalization in iterative solution of the eigenvalue problem:
     a serial algorithm will be used

 
     Parallelization info
     --------------------
     sticks:   dense  smooth     PW     G-vecs:    dense   smooth      PW
     Min         332     332     96                 4313     4313     705
     Max         333     333     97                 4314     4314     706
     Sum         665     665    193                 8627     8627    1411
 


     bravais-lattice index     =            6
     lattice parameter (alat)  =       9.1100  a.u.
     unit-cell volume          =     506.5589 (a.u.)^3
     number of atoms/cell      =            6
     number of atomic types    =            2
     number of electrons       =        52.00
     number of Kohn-Sham states=           26
     kinetic-energy cutoff     =      25.0000  Ry
     charge density cutoff     =     100.0000  Ry
     convergence threshold     =      1.0E-12
     mixing beta               =       0.7000
     number of iterations used =            8  plain     mixing
     Exchange-correlation      = PBE ( 1  4  3  4 0 0)

     celldm(1)=   9.110000  celldm(2)=   0.000000  celldm(3)=   0.670000
     celldm(4)=   0.000000  celldm(5)=   0.000000  celldm(6)=   0.000000

     crystal axes: (cart. coord. in units of alat)
               a(1) = (   1.000000   0.000000   0.000000 )  
               a(2) = (   0.000000   1.000000   0.000000 )  
               a(3) = (   0.000000   0.000000   0.670000 )  

     reciprocal axes: (cart. coord. in units 2 pi/alat)
               b(1) = (  1.000000  0.000000  0.000000 )  
               b(2) = (  0.000000  1.000000  0.000000 )  
               b(3) = (  0.000000  0.000000  1.492537 )  


     PseudoPot. # 1 for Sn read from file:
     ../../Pseudo_potentials/Sn_PBE.upf
     MD5 check sum: 78e6386ae56e929f0568ae8bf606a80c
     Pseudo is Norm-conserving + core correction, Zval = 14.0
     Generated using ONCVPSP code by D. R. Hamann
     Using radial grid of 1628 points,  6 beta functions with: 
                l(1) =   0
                l(2) =   0
                l(3) =   1
                l(4) =   1
                l(5) =   2
                l(6) =   2

     PseudoPot. # 2 for O  read from file:
     ../../Pseudo_potentials/O_PBE.upf
     MD5 check sum: 3e3f909f7470e8921608ab6b1f57bbae
     Pseudo is Norm-conserving + core correction, Zval =  6.0
     Generated using ONCVPSP code by D. R. Hamann
     Using radial grid of  936 points,  5 beta functions with: 
                l(1) =   0
                l(2) =   0
                l(3) =   1
                l(4) =   1
                l(5) =   2

     atomic species   valence    mass     pseudopotential
        Sn            14.00   118.71000     Sn( 1.00)
        O              6.00    15.99900     O ( 1.00)

      4 Sym. Ops. (no inversion) found



   Cartesian axes

     site n.     atom                  positions (alat units)
         1           Sn  tau(   1) = (   0.0000000   0.0000000   0.0000000  )
         2           Sn  tau(   2) = (   0.5000000   0.5000000   0.3350000  )
         3           O   tau(   3) = (   0.8060000   0.1930000   0.3350000  )
         4           O   tau(   4) = (   0.1930000   0.8060000   0.3350000  )
         5           O   tau(   5) = (   0.3060000   0.3060000   0.0000000  )
         6           O   tau(   6) = (   0.6930000   0.6930000   0.0000000  )

     number of k points=     8
                       cart. coord. in units 2pi/alat
        k(    1) = (   0.0000000   0.0000000   0.0000000), wk =   0.0740741
        k(    2) = (   0.0000000   0.0000000   0.4975124), wk =   0.1481481
        k(    3) = (   0.0000000   0.3333333   0.0000000), wk =   0.2962963
        k(    4) = (   0.0000000   0.3333333   0.4975124), wk =   0.5925926
        k(    5) = (   0.3333333   0.3333333   0.0000000), wk =   0.1481481
        k(    6) = (   0.3333333   0.3333333   0.4975124), wk =   0.2962963
        k(    7) = (   0.3333333  -0.3333333   0.0000000), wk =   0.1481481
        k(    8) = (   0.3333333  -0.3333333   0.4975124), wk =   0.2962963

     Dense  grid:     8627 G-vectors     FFT dimensions: (  30,  30,  20)

     Estimated max dynamical RAM per process >       9.72 MB

     Estimated total dynamical RAM >      19.44 MB

     Check: negative/imaginary core charge=   -0.002394    0.000000

     Initial potential from superposition of free atoms
     Check: negative starting charge=   -0.009566

     starting charge   51.99690, renormalised to   52.00000

     negative rho (up, down):  9.566E-03 0.000E+00
     Starting wfc are   34 randomized atomic wfcs

     total cpu time spent up to now is        0.4 secs

     Self-consistent Calculation

     iteration #  1     ecut=    25.00 Ry     beta= 0.70
     Davidson diagonalization with overlap
     ethr =  1.00E-02,  avg # of iterations =  2.0

     negative rho (up, down):  2.854E-03 0.000E+00

     total cpu time spent up to now is        0.8 secs

     total energy              =    -429.66831099 Ry
     Harris-Foulkes estimate   =    -432.68953808 Ry
     estimated scf accuracy    <       4.15940113 Ry

     iteration #  2     ecut=    25.00 Ry     beta= 0.70
     Davidson diagonalization with overlap
     ethr =  8.00E-03,  avg # of iterations =  2.0

     negative rho (up, down):  8.853E-04 0.000E+00

     total cpu time spent up to now is        1.1 secs

     total energy              =    -430.44417983 Ry
     Harris-Foulkes estimate   =    -430.58469747 Ry
     estimated scf accuracy    <       0.24931856 Ry

     iteration #  3     ecut=    25.00 Ry     beta= 0.70
     Davidson diagonalization with overlap
     ethr =  4.79E-04,  avg # of iterations =  2.9

     negative rho (up, down):  1.444E-04 0.000E+00

     total cpu time spent up to now is        1.5 secs

     total energy              =    -430.49445963 Ry
     Harris-Foulkes estimate   =    -430.50575371 Ry
     estimated scf accuracy    <       0.02559838 Ry

     iteration #  4     ecut=    25.00 Ry     beta= 0.70
     Davidson diagonalization with overlap
     ethr =  4.92E-05,  avg # of iterations =  2.6

     total cpu time spent up to now is        1.8 secs

     total energy              =    -430.49877509 Ry
     Harris-Foulkes estimate   =    -430.50022264 Ry
     estimated scf accuracy    <       0.00286222 Ry

     iteration #  5     ecut=    25.00 Ry     beta= 0.70
     Davidson diagonalization with overlap
     ethr =  5.50E-06,  avg # of iterations =  3.0

     total cpu time spent up to now is        2.2 secs

     total energy              =    -430.49944674 Ry
     Harris-Foulkes estimate   =    -430.49954788 Ry
     estimated scf accuracy    <       0.00019245 Ry

     iteration #  6     ecut=    25.00 Ry     beta= 0.70
     Davidson diagonalization with overlap
     ethr =  3.70E-07,  avg # of iterations =  3.0

     total cpu time spent up to now is        2.5 secs

     total energy              =    -430.49949971 Ry
     Harris-Foulkes estimate   =    -430.49950801 Ry
     estimated scf accuracy    <       0.00002417 Ry

     iteration #  7     ecut=    25.00 Ry     beta= 0.70
     Davidson diagonalization with overlap
     ethr =  4.65E-08,  avg # of iterations =  2.4

     total cpu time spent up to now is        2.9 secs

     total energy              =    -430.49949948 Ry
     Harris-Foulkes estimate   =    -430.49950242 Ry
     estimated scf accuracy    <       0.00000530 Ry

     iteration #  8     ecut=    25.00 Ry     beta= 0.70
     Davidson diagonalization with overlap
     ethr =  1.02E-08,  avg # of iterations =  3.0

     total cpu time spent up to now is        3.2 secs

     total energy              =    -430.49950082 Ry
     Harris-Foulkes estimate   =    -430.49950085 Ry
     estimated scf accuracy    <       0.00000009 Ry

     iteration #  9     ecut=    25.00 Ry     beta= 0.70
     Davidson diagonalization with overlap
     ethr =  1.72E-10,  avg # of iterations =  3.5

     total cpu time spent up to now is        3.6 secs

     total energy              =    -430.49950084 Ry
     Harris-Foulkes estimate   =    -430.49950085 Ry
     estimated scf accuracy    <       0.00000004 Ry

     iteration # 10     ecut=    25.00 Ry     beta= 0.70
     Davidson diagonalization with overlap
     ethr =  8.51E-11,  avg # of iterations =  3.4

     total cpu time spent up to now is        3.9 secs

     total energy              =    -430.49950084 Ry
     Harris-Foulkes estimate   =    -430.49950085 Ry
     estimated scf accuracy    <          4.9E-09 Ry

     iteration # 11     ecut=    25.00 Ry     beta= 0.70
     Davidson diagonalization with overlap
     ethr =  9.51E-12,  avg # of iterations =  2.6

     total cpu time spent up to now is        4.2 secs

     total energy              =    -430.49950084 Ry
     Harris-Foulkes estimate   =    -430.49950084 Ry
     estimated scf accuracy    <          3.5E-10 Ry

     iteration # 12     ecut=    25.00 Ry     beta= 0.70
     Davidson diagonalization with overlap
     ethr =  6.74E-13,  avg # of iterations =  3.4

     total cpu time spent up to now is        4.6 secs

     total energy              =    -430.49950084 Ry
     Harris-Foulkes estimate   =    -430.49950084 Ry
     estimated scf accuracy    <          3.4E-11 Ry

     iteration # 13     ecut=    25.00 Ry     beta= 0.70
     Davidson diagonalization with overlap
     ethr =  1.00E-13,  avg # of iterations =  3.0

     total cpu time spent up to now is        4.9 secs

     End of self-consistent calculation

          k = 0.0000 0.0000 0.0000 (  1065 PWs)   bands (ev):

   -12.1293 -11.5095 -10.1838 -10.1838 -10.1729 -10.0756  -9.9858  -9.9047
    -9.9032  -9.7061  -9.1714  -9.0571  -9.0571  -7.1152   1.0098   5.6221
     5.6222   5.9076   6.9734   7.8078   7.9912   9.0716   9.2024   9.2024
     9.2354   9.2354

          k = 0.0000 0.0000 0.4975 (  1070 PWs)   bands (ev):

   -11.7082 -11.4036 -11.4035 -10.9115 -10.1942 -10.1094  -9.6624  -9.6623
    -9.4657  -9.3895  -8.9494  -8.3052  -8.0036  -8.0036   1.2418   3.4545
     5.4074   5.9736   5.9738   6.8632   6.8912   6.8912   7.5873   9.0983
     9.1529   9.1531

          k = 0.0000 0.3333 0.0000 (  1070 PWs)   bands (ev):

   -11.7918 -11.3970 -10.8024 -10.4482 -10.3524 -10.1153  -9.9737  -9.9019
    -9.7121  -9.6498  -9.6187  -9.5277  -8.6777  -7.6219   1.7505   3.7643
     6.1711   6.2656   7.1854   7.2445   7.4306   8.5810   9.1712   9.2189
     9.2224   9.4680

          k = 0.0000 0.3333 0.4975 (  1069 PWs)   bands (ev):

   -11.7893 -11.6798 -10.8912 -10.6068 -10.0018  -9.8587  -9.8240  -9.6248
    -9.6063  -9.4977  -9.4681  -8.9844  -7.7266  -7.4972   1.8011   3.0094
     4.4406   4.6750   6.0237   6.0350   8.0605   8.2947   8.5473   8.9549
     9.0546   9.5850

          k = 0.3333 0.3333 0.0000 (  1068 PWs)   bands (ev):

   -11.8665 -11.6052 -10.6220 -10.2755 -10.1922 -10.0807  -9.9900  -9.6905
    -9.5996  -9.5930  -9.5496  -9.4735  -8.7115  -7.9517   2.5175   3.8661
     5.7219   6.4634   6.6210   6.9397   7.5709   8.1991   9.0992   9.1244
     9.1745   9.2562

          k = 0.3333 0.3333 0.4975 (  1075 PWs)   bands (ev):

   -11.8522 -11.4785 -11.4131 -10.9297 -10.1317  -9.9778  -9.8090  -9.7616
    -9.7562  -9.5138  -9.4682  -8.8081  -7.8781  -7.6967   1.7711   2.2415
     5.0369   5.4491   5.5223   6.7181   7.1399   8.5803   8.6333   9.0946
     9.1992   9.3096

          k = 0.3333-0.3333 0.0000 (  1068 PWs)   bands (ev):

   -11.8666 -11.6051 -10.6219 -10.2755 -10.1922 -10.0818  -9.9888  -9.6904
    -9.5997  -9.5930  -9.5497  -9.4735  -8.7115  -7.9517   2.5174   3.8661
     5.7219   6.4634   6.6210   6.9397   7.5709   8.1991   9.0991   9.1244
     9.1745   9.2562

          k = 0.3333-0.3333 0.4975 (  1075 PWs)   bands (ev):

   -11.8521 -11.4788 -11.4130 -10.9297 -10.1317  -9.9778  -9.8090  -9.7621
    -9.7556  -9.5139  -9.4682  -8.8080  -7.8781  -7.6967   1.7712   2.2414
     5.0369   5.4490   5.5224   6.7181   7.1399   8.5802   8.6335   9.0946
     9.1993   9.3096

     highest occupied level (ev):     9.5850

!    total energy              =    -430.49950084 Ry
     Harris-Foulkes estimate   =    -430.49950084 Ry
     estimated scf accuracy    <          4.4E-13 Ry

     The total energy is the sum of the following terms:

     one-electron contribution =     -96.76594043 Ry
     hartree contribution      =      85.60608947 Ry
     xc contribution           =    -116.85831154 Ry
     ewald contribution        =    -302.48133834 Ry

     convergence has been achieved in  13 iterations

     Writing output data file SnO2.save
 
     init_run     :      0.18s CPU      0.20s WALL (       1 calls)
     electrons    :      4.29s CPU      4.51s WALL (       1 calls)

     Called by init_run:
     wfcinit      :      0.12s CPU      0.13s WALL (       1 calls)
     potinit      :      0.02s CPU      0.02s WALL (       1 calls)
     hinit0       :      0.04s CPU      0.04s WALL (       1 calls)

     Called by electrons:
     c_bands      :      3.75s CPU      3.92s WALL (      13 calls)
     sum_band     :      0.46s CPU      0.49s WALL (      13 calls)
     v_of_rho     :      0.07s CPU      0.07s WALL (      14 calls)
     mix_rho      :      0.01s CPU      0.01s WALL (      13 calls)

     Called by c_bands:
     init_us_2    :      0.05s CPU      0.07s WALL (     216 calls)
     cegterg      :      3.40s CPU      3.56s WALL (     104 calls)

     Called by sum_band:

     Called by *egterg:
     h_psi        :      2.56s CPU      2.73s WALL (     406 calls)
     g_psi        :      0.03s CPU      0.03s WALL (     294 calls)
     cdiaghg      :      0.51s CPU      0.51s WALL (     398 calls)

     Called by h_psi:
     h_psi:pot    :      2.56s CPU      2.72s WALL (     406 calls)
     h_psi:calbec :      0.18s CPU      0.18s WALL (     406 calls)
     vloc_psi     :      2.27s CPU      2.37s WALL (     406 calls)
     add_vuspsi   :      0.11s CPU      0.17s WALL (     406 calls)

     General routines
     calbec       :      0.18s CPU      0.18s WALL (     406 calls)
     fft          :      0.03s CPU      0.03s WALL (     141 calls)
     ffts         :      0.00s CPU      0.00s WALL (      13 calls)
     fftw         :      2.62s CPU      2.61s WALL (   17556 calls)
 
     Parallel routines
     fft_scatt_xy :      0.07s CPU      0.21s WALL (   17710 calls)
     fft_scatt_yz :      1.90s CPU      0.37s WALL (   17710 calls)
 
     PWSCF        :     4.69s CPU         5.50s WALL

 
   This run was terminated on:  12:23:52  21Apr2018            

=------------------------------------------------------------------------------=
   JOB DONE.
=------------------------------------------------------------------------------=
