
     Program PWSCF v.6.2.2 starts on  6Apr2018 at 21:48:57 

     This program is part of the open-source Quantum ESPRESSO suite
     for quantum simulation of materials; please cite
         "P. Giannozzi et al., J. Phys.:Condens. Matter 21 395502 (2009);
         "P. Giannozzi et al., J. Phys.:Condens. Matter 29 465901 (2017);
          URL http://www.quantum-espresso.org", 
     in publications or presentations arising from this work. More details at
     http://www.quantum-espresso.org/quote

     Parallel version (MPI), running on     2 processors

     MPI processes distributed on     1 nodes
     R & G space division:  proc/nbgrp/npool/nimage =       2
     Reading input from Conv_etot-k2.in
Warning: card &IONS ignored
Warning: card / ignored
Warning: card &CELL ignored
Warning: card / ignored

     Current dimensions of program PWSCF are:
     Max number of different atomic species (ntypx) = 10
     Max number of k-points (npk) =  40000
     Max angular momentum in pseudopotentials (lmaxx) =  3

     Subspace diagonalization in iterative solution of the eigenvalue problem:
     a serial algorithm will be used

 
     Parallelization info
     --------------------
     sticks:   dense  smooth     PW     G-vecs:    dense   smooth      PW
     Min         200     200     68                 2007     2007     408
     Max         201     201     69                 2008     2008     409
     Sum         401     401    137                 4015     4015     817
 


     bravais-lattice index     =            6
     lattice parameter (alat)  =       9.1100  a.u.
     unit-cell volume          =     506.5589 (a.u.)^3
     number of atoms/cell      =            6
     number of atomic types    =            2
     number of electrons       =        52.00
     number of Kohn-Sham states=           26
     kinetic-energy cutoff     =      15.0000  Ry
     charge density cutoff     =      60.0000  Ry
     convergence threshold     =      1.0E-12
     mixing beta               =       0.7000
     number of iterations used =            8  plain     mixing
     Exchange-correlation      = PBE ( 1  4  3  4 0 0)

     celldm(1)=   9.110000  celldm(2)=   0.000000  celldm(3)=   0.670000
     celldm(4)=   0.000000  celldm(5)=   0.000000  celldm(6)=   0.000000

     crystal axes: (cart. coord. in units of alat)
               a(1) = (   1.000000   0.000000   0.000000 )  
               a(2) = (   0.000000   1.000000   0.000000 )  
               a(3) = (   0.000000   0.000000   0.670000 )  

     reciprocal axes: (cart. coord. in units 2 pi/alat)
               b(1) = (  1.000000  0.000000  0.000000 )  
               b(2) = (  0.000000  1.000000  0.000000 )  
               b(3) = (  0.000000  0.000000  1.492537 )  


     PseudoPot. # 1 for Sn read from file:
     ../Pseudo_potentials/Sn_PBE.upf
     MD5 check sum: 78e6386ae56e929f0568ae8bf606a80c
     Pseudo is Norm-conserving + core correction, Zval = 14.0
     Generated using ONCVPSP code by D. R. Hamann
     Using radial grid of 1628 points,  6 beta functions with: 
                l(1) =   0
                l(2) =   0
                l(3) =   1
                l(4) =   1
                l(5) =   2
                l(6) =   2

     PseudoPot. # 2 for O  read from file:
     ../Pseudo_potentials/O_PBE.upf
     MD5 check sum: 3e3f909f7470e8921608ab6b1f57bbae
     Pseudo is Norm-conserving + core correction, Zval =  6.0
     Generated using ONCVPSP code by D. R. Hamann
     Using radial grid of  936 points,  5 beta functions with: 
                l(1) =   0
                l(2) =   0
                l(3) =   1
                l(4) =   1
                l(5) =   2

     atomic species   valence    mass     pseudopotential
        Sn            14.00   118.71000     Sn( 1.00)
        O              6.00    15.99900     O ( 1.00)

      4 Sym. Ops. (no inversion) found



   Cartesian axes

     site n.     atom                  positions (alat units)
         1           Sn  tau(   1) = (   0.0000000   0.0000000   0.0000000  )
         2           Sn  tau(   2) = (   0.5000000   0.5000000   0.3350000  )
         3           O   tau(   3) = (   0.8060000   0.1930000   0.3350000  )
         4           O   tau(   4) = (   0.1930000   0.8060000   0.3350000  )
         5           O   tau(   5) = (   0.3060000   0.3060000   0.0000000  )
         6           O   tau(   6) = (   0.6930000   0.6930000   0.0000000  )

     number of k points=     6
                       cart. coord. in units 2pi/alat
        k(    1) = (   0.0000000   0.0000000   0.0000000), wk =   0.2500000
        k(    2) = (   0.0000000   0.0000000  -0.7462687), wk =   0.2500000
        k(    3) = (   0.0000000  -0.5000000   0.0000000), wk =   0.5000000
        k(    4) = (   0.0000000  -0.5000000  -0.7462687), wk =   0.5000000
        k(    5) = (  -0.5000000  -0.5000000   0.0000000), wk =   0.2500000
        k(    6) = (  -0.5000000  -0.5000000  -0.7462687), wk =   0.2500000

     Dense  grid:     4015 G-vectors     FFT dimensions: (  24,  24,  15)

     Estimated max dynamical RAM per process >       5.36 MB

     Estimated total dynamical RAM >      10.71 MB

     Check: negative/imaginary core charge=   -0.005277    0.000000

     Initial potential from superposition of free atoms
     Check: negative starting charge=   -0.053732

     starting charge   51.99690, renormalised to   52.00000

     negative rho (up, down):  5.373E-02 0.000E+00
     Starting wfc are   34 randomized atomic wfcs

     total cpu time spent up to now is        0.8 secs

     Self-consistent Calculation

     iteration #  1     ecut=    15.00 Ry     beta= 0.70
     Davidson diagonalization with overlap
     ethr =  1.00E-02,  avg # of iterations =  3.0

     negative rho (up, down):  1.590E-02 0.000E+00

     total cpu time spent up to now is        1.3 secs

     total energy              =    -393.19775557 Ry
     Harris-Foulkes estimate   =    -412.25799768 Ry
     estimated scf accuracy    <      24.53403496 Ry

     iteration #  2     ecut=    15.00 Ry     beta= 0.70
     Davidson diagonalization with overlap
     ethr =  1.00E-02,  avg # of iterations =  3.7

     negative rho (up, down):  5.045E-03 0.000E+00

     total cpu time spent up to now is        1.8 secs

     total energy              =    -398.07287435 Ry
     Harris-Foulkes estimate   =    -400.78720318 Ry
     estimated scf accuracy    <       4.36697584 Ry

     iteration #  3     ecut=    15.00 Ry     beta= 0.70
     Davidson diagonalization with overlap
     ethr =  8.40E-03,  avg # of iterations =  3.7

     negative rho (up, down):  1.262E-03 0.000E+00

     total cpu time spent up to now is        2.3 secs

     total energy              =    -399.23212018 Ry
     Harris-Foulkes estimate   =    -399.80741406 Ry
     estimated scf accuracy    <       1.13719180 Ry

     iteration #  4     ecut=    15.00 Ry     beta= 0.70
     Davidson diagonalization with overlap
     ethr =  2.19E-03,  avg # of iterations =  2.2

     total cpu time spent up to now is        2.7 secs

     total energy              =    -399.42086805 Ry
     Harris-Foulkes estimate   =    -399.43099415 Ry
     estimated scf accuracy    <       0.03933160 Ry

     iteration #  5     ecut=    15.00 Ry     beta= 0.70
     Davidson diagonalization with overlap
     ethr =  7.56E-05,  avg # of iterations =  1.7

     total cpu time spent up to now is        3.0 secs

     total energy              =    -399.42356000 Ry
     Harris-Foulkes estimate   =    -399.42357014 Ry
     estimated scf accuracy    <       0.00077290 Ry

     iteration #  6     ecut=    15.00 Ry     beta= 0.70
     Davidson diagonalization with overlap
     ethr =  1.49E-06,  avg # of iterations =  4.0

     total cpu time spent up to now is        3.5 secs

     total energy              =    -399.43972423 Ry
     Harris-Foulkes estimate   =    -399.43982590 Ry
     estimated scf accuracy    <       0.00909552 Ry

     iteration #  7     ecut=    15.00 Ry     beta= 0.70
     Davidson diagonalization with overlap
     ethr =  1.49E-06,  avg # of iterations =  1.0

     total cpu time spent up to now is        3.8 secs

     total energy              =    -399.43923663 Ry
     Harris-Foulkes estimate   =    -399.43972623 Ry
     estimated scf accuracy    <       0.00882627 Ry

     iteration #  8     ecut=    15.00 Ry     beta= 0.70
     Davidson diagonalization with overlap
     ethr =  1.49E-06,  avg # of iterations =  1.5

     total cpu time spent up to now is        4.1 secs

     total energy              =    -399.43825837 Ry
     Harris-Foulkes estimate   =    -399.43925279 Ry
     estimated scf accuracy    <       0.00711727 Ry

     iteration #  9     ecut=    15.00 Ry     beta= 0.70
     Davidson diagonalization with overlap
     ethr =  1.49E-06,  avg # of iterations =  2.5

     total cpu time spent up to now is        4.4 secs

     total energy              =    -399.43696517 Ry
     Harris-Foulkes estimate   =    -399.43831872 Ry
     estimated scf accuracy    <       0.00425054 Ry

     iteration # 10     ecut=    15.00 Ry     beta= 0.70
     Davidson diagonalization with overlap
     ethr =  1.49E-06,  avg # of iterations =  3.3

     total cpu time spent up to now is        4.8 secs

     total energy              =    -399.43709943 Ry
     Harris-Foulkes estimate   =    -399.43726515 Ry
     estimated scf accuracy    <       0.00039485 Ry

     iteration # 11     ecut=    15.00 Ry     beta= 0.70
     Davidson diagonalization with overlap
     ethr =  7.59E-07,  avg # of iterations =  3.2

     total cpu time spent up to now is        5.2 secs

     total energy              =    -399.43715399 Ry
     Harris-Foulkes estimate   =    -399.43715713 Ry
     estimated scf accuracy    <       0.00000897 Ry

     iteration # 12     ecut=    15.00 Ry     beta= 0.70
     Davidson diagonalization with overlap
     ethr =  1.73E-08,  avg # of iterations =  3.3

     total cpu time spent up to now is        5.6 secs

     total energy              =    -399.43715590 Ry
     Harris-Foulkes estimate   =    -399.43715599 Ry
     estimated scf accuracy    <       0.00000072 Ry

     iteration # 13     ecut=    15.00 Ry     beta= 0.70
     Davidson diagonalization with overlap
     ethr =  1.38E-09,  avg # of iterations =  3.5

     total cpu time spent up to now is        6.1 secs

     total energy              =    -399.43715569 Ry
     Harris-Foulkes estimate   =    -399.43715625 Ry
     estimated scf accuracy    <       0.00000142 Ry

     iteration # 14     ecut=    15.00 Ry     beta= 0.70
     Davidson diagonalization with overlap
     ethr =  1.38E-09,  avg # of iterations =  3.3

     total cpu time spent up to now is        6.5 secs

     total energy              =    -399.43715592 Ry
     Harris-Foulkes estimate   =    -399.43715594 Ry
     estimated scf accuracy    <          7.0E-09 Ry

     iteration # 15     ecut=    15.00 Ry     beta= 0.70
     Davidson diagonalization with overlap
     ethr =  1.34E-11,  avg # of iterations =  3.7

     total cpu time spent up to now is        7.0 secs

     total energy              =    -399.43715592 Ry
     Harris-Foulkes estimate   =    -399.43715592 Ry
     estimated scf accuracy    <          1.3E-09 Ry

     iteration # 16     ecut=    15.00 Ry     beta= 0.70
     Davidson diagonalization with overlap
     ethr =  2.54E-12,  avg # of iterations =  3.3

     total cpu time spent up to now is        7.4 secs

     total energy              =    -399.43715591 Ry
     Harris-Foulkes estimate   =    -399.43715592 Ry
     estimated scf accuracy    <          1.3E-10 Ry

     iteration # 17     ecut=    15.00 Ry     beta= 0.70
     Davidson diagonalization with overlap
     ethr =  2.45E-13,  avg # of iterations =  2.8

     total cpu time spent up to now is        7.8 secs

     total energy              =    -399.43715591 Ry
     Harris-Foulkes estimate   =    -399.43715591 Ry
     estimated scf accuracy    <          2.6E-12 Ry

     iteration # 18     ecut=    15.00 Ry     beta= 0.70
     Davidson diagonalization with overlap
     ethr =  1.00E-13,  avg # of iterations =  1.0

     total cpu time spent up to now is        8.1 secs

     End of self-consistent calculation

          k = 0.0000 0.0000 0.0000 (   503 PWs)   bands (ev):

   -14.6072 -13.9578 -13.5972 -13.3292  -3.9077  -3.8234  -3.7383  -3.5618
    -3.3596  -3.2061  -2.4459  -2.4096  -2.3201  -1.4430   0.1144   4.7632
     6.3571   6.4196   6.5563   8.7182   8.9268  10.6812  10.7537  11.5009
    12.0980  12.3770

          k = 0.0000 0.0000-0.7463 (   512 PWs)   bands (ev):

   -13.9882 -13.8782 -13.7336 -13.6122  -4.1137  -3.9912  -3.1639  -3.1256
    -3.0702  -3.0276  -2.7669  -2.5817  -2.3616  -2.2082   0.5591   0.6631
     6.1987   6.4201   7.1164   7.1819   8.6489   8.7605   9.6554   9.8096
    10.5569  10.7198

          k = 0.0000-0.5000 0.0000 (   516 PWs)   bands (ev):

   -14.2953 -14.0923 -13.7144 -13.5087  -4.3752  -4.1949  -4.0317  -3.9182
    -3.7012  -3.5799  -3.0795  -2.9669  -2.5837  -2.4607   1.4056   1.5168
     7.5568   7.5746   7.5786   7.8201   9.3803   9.4424  10.8041  10.8274
    11.5072  11.7713

          k = 0.0000-0.5000-0.7463 (   492 PWs)   bands (ev):

   -14.0136 -13.8275 -13.7556 -13.5643  -3.4281  -3.4129  -2.5072  -2.4831
    -2.2179  -2.1624  -1.6134  -1.5783  -1.0551  -0.9849   1.4780   1.5319
     4.5022   4.5723   6.0922   6.2340  10.4777  10.6121  10.6541  10.7971
    13.4638  13.5332

          k =-0.5000-0.5000 0.0000 (   488 PWs)   bands (ev):

   -14.3358 -14.0843 -13.6380 -13.3714  -3.8032  -3.6827  -3.6482  -3.6301
    -1.8234  -1.7554  -1.6364  -1.5124  -1.0012  -0.9030   2.8848   2.9756
     6.4487   6.4766   7.6159   7.8652   8.8523   8.8707  11.2349  11.4102
    12.3743  12.6554

          k =-0.5000-0.5000-0.7463 (   496 PWs)   bands (ev):

   -13.9571 -13.8701 -13.7015 -13.6039  -2.9563  -2.8592  -2.5609  -2.4346
    -2.2445  -2.1493  -2.0067  -1.8482  -1.7051  -1.5222   0.2962   0.3867
     5.8275   5.9888   8.2132   8.3039   8.7285   8.8417  10.3279  10.4153
    11.0873  11.2636

     highest occupied level (ev):    13.5332

!    total energy              =    -399.43715591 Ry
     Harris-Foulkes estimate   =    -399.43715591 Ry
     estimated scf accuracy    <          6.9E-13 Ry

     The total energy is the sum of the following terms:

     one-electron contribution =     -51.87563288 Ry
     hartree contribution      =      64.36765897 Ry
     xc contribution           =    -109.44784600 Ry
     ewald contribution        =    -302.48133600 Ry

     convergence has been achieved in  18 iterations

     Writing output data file SnO2.save
 
     init_run     :      0.11s CPU      0.25s WALL (       1 calls)
     electrons    :      3.46s CPU      7.36s WALL (       1 calls)

     Called by init_run:
     wfcinit      :      0.06s CPU      0.14s WALL (       1 calls)
     potinit      :      0.01s CPU      0.03s WALL (       1 calls)
     hinit0       :      0.04s CPU      0.08s WALL (       1 calls)

     Called by electrons:
     c_bands      :      3.05s CPU      6.44s WALL (      18 calls)
     sum_band     :      0.33s CPU      0.71s WALL (      18 calls)
     v_of_rho     :      0.07s CPU      0.13s WALL (      19 calls)
     mix_rho      :      0.01s CPU      0.04s WALL (      18 calls)

     Called by c_bands:
     init_us_2    :      0.02s CPU      0.05s WALL (     222 calls)
     cegterg      :      2.82s CPU      6.06s WALL (     108 calls)

     Called by sum_band:

     Called by *egterg:
     h_psi        :      1.78s CPU      3.92s WALL (     418 calls)
     g_psi        :      0.01s CPU      0.02s WALL (     304 calls)
     cdiaghg      :      0.76s CPU      1.65s WALL (     412 calls)

     Called by h_psi:
     h_psi:pot    :      1.78s CPU      3.92s WALL (     418 calls)
     h_psi:calbec :      0.13s CPU      0.19s WALL (     418 calls)
     vloc_psi     :      1.62s CPU      3.60s WALL (     418 calls)
     add_vuspsi   :      0.02s CPU      0.12s WALL (     418 calls)

     General routines
     calbec       :      0.13s CPU      0.19s WALL (     418 calls)
     fft          :      0.03s CPU      0.10s WALL (     191 calls)
     ffts         :      0.00s CPU      0.00s WALL (      18 calls)
     fftw         :      1.92s CPU      4.12s WALL (   17698 calls)
 
     Parallel routines
     fft_scatt_xy :      0.01s CPU      0.14s WALL (   17907 calls)
     fft_scatt_yz :      1.84s CPU      2.75s WALL (   17907 calls)
 
     PWSCF        :     3.86s CPU         8.66s WALL

 
   This run was terminated on:  21:49: 5   6Apr2018            

=------------------------------------------------------------------------------=
   JOB DONE.
=------------------------------------------------------------------------------=
