
     Program PWSCF v.6.2.2 starts on 21Apr2018 at 12:25:56 

     This program is part of the open-source Quantum ESPRESSO suite
     for quantum simulation of materials; please cite
         "P. Giannozzi et al., J. Phys.:Condens. Matter 21 395502 (2009);
         "P. Giannozzi et al., J. Phys.:Condens. Matter 29 465901 (2017);
          URL http://www.quantum-espresso.org", 
     in publications or presentations arising from this work. More details at
     http://www.quantum-espresso.org/quote

     Parallel version (MPI), running on     2 processors

     MPI processes distributed on     1 nodes
     R & G space division:  proc/nbgrp/npool/nimage =       2
     Reading input from Conv_etot-kp.in
Warning: card &IONS ignored
Warning: card / ignored
Warning: card &CELL ignored
Warning: card / ignored

     Current dimensions of program PWSCF are:
     Max number of different atomic species (ntypx) = 10
     Max number of k-points (npk) =  40000
     Max angular momentum in pseudopotentials (lmaxx) =  3

     Subspace diagonalization in iterative solution of the eigenvalue problem:
     a serial algorithm will be used

 
     Parallelization info
     --------------------
     sticks:   dense  smooth     PW     G-vecs:    dense   smooth      PW
     Min         332     332    110                 4313     4313     791
     Max         333     333    111                 4314     4314     792
     Sum         665     665    221                 8627     8627    1583
 


     bravais-lattice index     =            6
     lattice parameter (alat)  =       9.1100  a.u.
     unit-cell volume          =     506.5589 (a.u.)^3
     number of atoms/cell      =            6
     number of atomic types    =            2
     number of electrons       =        52.00
     number of Kohn-Sham states=           26
     kinetic-energy cutoff     =      25.0000  Ry
     charge density cutoff     =     100.0000  Ry
     convergence threshold     =      1.0E-12
     mixing beta               =       0.7000
     number of iterations used =            8  plain     mixing
     Exchange-correlation      = PBE ( 1  4  3  4 0 0)

     celldm(1)=   9.110000  celldm(2)=   0.000000  celldm(3)=   0.670000
     celldm(4)=   0.000000  celldm(5)=   0.000000  celldm(6)=   0.000000

     crystal axes: (cart. coord. in units of alat)
               a(1) = (   1.000000   0.000000   0.000000 )  
               a(2) = (   0.000000   1.000000   0.000000 )  
               a(3) = (   0.000000   0.000000   0.670000 )  

     reciprocal axes: (cart. coord. in units 2 pi/alat)
               b(1) = (  1.000000  0.000000  0.000000 )  
               b(2) = (  0.000000  1.000000  0.000000 )  
               b(3) = (  0.000000  0.000000  1.492537 )  


     PseudoPot. # 1 for Sn read from file:
     ../../Pseudo_potentials/Sn_PBE.upf
     MD5 check sum: 78e6386ae56e929f0568ae8bf606a80c
     Pseudo is Norm-conserving + core correction, Zval = 14.0
     Generated using ONCVPSP code by D. R. Hamann
     Using radial grid of 1628 points,  6 beta functions with: 
                l(1) =   0
                l(2) =   0
                l(3) =   1
                l(4) =   1
                l(5) =   2
                l(6) =   2

     PseudoPot. # 2 for O  read from file:
     ../../Pseudo_potentials/O_PBE.upf
     MD5 check sum: 3e3f909f7470e8921608ab6b1f57bbae
     Pseudo is Norm-conserving + core correction, Zval =  6.0
     Generated using ONCVPSP code by D. R. Hamann
     Using radial grid of  936 points,  5 beta functions with: 
                l(1) =   0
                l(2) =   0
                l(3) =   1
                l(4) =   1
                l(5) =   2

     atomic species   valence    mass     pseudopotential
        Sn            14.00   118.71000     Sn( 1.00)
        O              6.00    15.99900     O ( 1.00)

      4 Sym. Ops. (no inversion) found



   Cartesian axes

     site n.     atom                  positions (alat units)
         1           Sn  tau(   1) = (   0.0000000   0.0000000   0.0000000  )
         2           Sn  tau(   2) = (   0.5000000   0.5000000   0.3350000  )
         3           O   tau(   3) = (   0.8060000   0.1930000   0.3350000  )
         4           O   tau(   4) = (   0.1930000   0.8060000   0.3350000  )
         5           O   tau(   5) = (   0.3060000   0.3060000   0.0000000  )
         6           O   tau(   6) = (   0.6930000   0.6930000   0.0000000  )

     number of k points=   186

     Number of k-points >= 100: set verbosity='high' to print them.

     Dense  grid:     8627 G-vectors     FFT dimensions: (  30,  30,  20)

     Estimated max dynamical RAM per process >      47.43 MB

     Estimated total dynamical RAM >      94.86 MB

     Check: negative/imaginary core charge=   -0.002394    0.000000

     Initial potential from superposition of free atoms
     Check: negative starting charge=   -0.009566

     starting charge   51.99690, renormalised to   52.00000

     negative rho (up, down):  9.566E-03 0.000E+00
     Starting wfc are   34 randomized atomic wfcs

     total cpu time spent up to now is        3.3 secs

     Self-consistent Calculation

     iteration #  1     ecut=    25.00 Ry     beta= 0.70
     Davidson diagonalization with overlap
     ethr =  1.00E-02,  avg # of iterations =  2.0

     negative rho (up, down):  2.854E-03 0.000E+00

     total cpu time spent up to now is       11.8 secs

     total energy              =    -429.63251077 Ry
     Harris-Foulkes estimate   =    -432.66131602 Ry
     estimated scf accuracy    <       4.16972504 Ry

     iteration #  2     ecut=    25.00 Ry     beta= 0.70
     Davidson diagonalization with overlap
     ethr =  8.02E-03,  avg # of iterations =  2.0

     negative rho (up, down):  8.831E-04 0.000E+00

     total cpu time spent up to now is       19.6 secs

     total energy              =    -430.40738322 Ry
     Harris-Foulkes estimate   =    -430.54871865 Ry
     estimated scf accuracy    <       0.25018808 Ry

     iteration #  3     ecut=    25.00 Ry     beta= 0.70
     Davidson diagonalization with overlap
     ethr =  4.81E-04,  avg # of iterations =  2.8

     negative rho (up, down):  1.595E-04 0.000E+00

     total cpu time spent up to now is       27.9 secs

     total energy              =    -430.45349093 Ry
     Harris-Foulkes estimate   =    -430.46733790 Ry
     estimated scf accuracy    <       0.02970011 Ry

     iteration #  4     ecut=    25.00 Ry     beta= 0.70
     Davidson diagonalization with overlap
     ethr =  5.71E-05,  avg # of iterations =  2.8

     total cpu time spent up to now is       36.2 secs

     total energy              =    -430.45888125 Ry
     Harris-Foulkes estimate   =    -430.46070196 Ry
     estimated scf accuracy    <       0.00355913 Ry

     iteration #  5     ecut=    25.00 Ry     beta= 0.70
     Davidson diagonalization with overlap
     ethr =  6.84E-06,  avg # of iterations =  3.0

     total cpu time spent up to now is       44.8 secs

     total energy              =    -430.45971654 Ry
     Harris-Foulkes estimate   =    -430.45980378 Ry
     estimated scf accuracy    <       0.00017764 Ry

     iteration #  6     ecut=    25.00 Ry     beta= 0.70
     Davidson diagonalization with overlap
     ethr =  3.42E-07,  avg # of iterations =  3.1

     total cpu time spent up to now is       53.4 secs

     total energy              =    -430.45981016 Ry
     Harris-Foulkes estimate   =    -430.45981758 Ry
     estimated scf accuracy    <       0.00001837 Ry

     iteration #  7     ecut=    25.00 Ry     beta= 0.70
     Davidson diagonalization with overlap
     ethr =  3.53E-08,  avg # of iterations =  3.3

     total cpu time spent up to now is       61.6 secs

     total energy              =    -430.45986209 Ry
     Harris-Foulkes estimate   =    -430.45986351 Ry
     estimated scf accuracy    <       0.00000404 Ry

     iteration #  8     ecut=    25.00 Ry     beta= 0.70
     Davidson diagonalization with overlap
     ethr =  7.78E-09,  avg # of iterations =  2.4

     total cpu time spent up to now is       68.9 secs

     total energy              =    -430.45986226 Ry
     Harris-Foulkes estimate   =    -430.45986249 Ry
     estimated scf accuracy    <       0.00000049 Ry

     iteration #  9     ecut=    25.00 Ry     beta= 0.70
     Davidson diagonalization with overlap
     ethr =  9.35E-10,  avg # of iterations =  3.1

     total cpu time spent up to now is       77.7 secs

     total energy              =    -430.45986236 Ry
     Harris-Foulkes estimate   =    -430.45986240 Ry
     estimated scf accuracy    <       0.00000011 Ry

     iteration # 10     ecut=    25.00 Ry     beta= 0.70
     Davidson diagonalization with overlap
     ethr =  2.13E-10,  avg # of iterations =  3.0

     total cpu time spent up to now is       85.7 secs

     total energy              =    -430.45986237 Ry
     Harris-Foulkes estimate   =    -430.45986238 Ry
     estimated scf accuracy    <       0.00000004 Ry

     iteration # 11     ecut=    25.00 Ry     beta= 0.70
     Davidson diagonalization with overlap
     ethr =  6.74E-11,  avg # of iterations =  2.5

     total cpu time spent up to now is       93.4 secs

     total energy              =    -430.45986237 Ry
     Harris-Foulkes estimate   =    -430.45986237 Ry
     estimated scf accuracy    <          1.1E-09 Ry

     iteration # 12     ecut=    25.00 Ry     beta= 0.70
     Davidson diagonalization with overlap
     ethr =  2.14E-12,  avg # of iterations =  3.2

     total cpu time spent up to now is      101.7 secs

     total energy              =    -430.45986237 Ry
     Harris-Foulkes estimate   =    -430.45986237 Ry
     estimated scf accuracy    <          1.1E-10 Ry

     iteration # 13     ecut=    25.00 Ry     beta= 0.70
     Davidson diagonalization with overlap
     ethr =  2.10E-13,  avg # of iterations =  2.8

     total cpu time spent up to now is      109.7 secs

     total energy              =    -430.45986237 Ry
     Harris-Foulkes estimate   =    -430.45986237 Ry
     estimated scf accuracy    <          2.6E-12 Ry

     iteration # 14     ecut=    25.00 Ry     beta= 0.70
     Davidson diagonalization with overlap
     ethr =  1.00E-13,  avg # of iterations =  1.0

     total cpu time spent up to now is      115.7 secs

     End of self-consistent calculation

     Number of k-points >= 100: set verbosity='high' to print the bands.

     highest occupied level (ev):     9.8039

!    total energy              =    -430.45986237 Ry
     Harris-Foulkes estimate   =    -430.45986237 Ry
     estimated scf accuracy    <          2.1E-13 Ry

     The total energy is the sum of the following terms:

     one-electron contribution =     -96.65575227 Ry
     hartree contribution      =      85.51548206 Ry
     xc contribution           =    -116.83825383 Ry
     ewald contribution        =    -302.48133834 Ry

     convergence has been achieved in  14 iterations

     Writing output data file SnO2.save
 
     init_run     :      2.90s CPU      3.05s WALL (       1 calls)
     electrons    :    107.56s CPU    112.46s WALL (       1 calls)

     Called by init_run:
     wfcinit      :      2.82s CPU      2.97s WALL (       1 calls)
     potinit      :      0.02s CPU      0.02s WALL (       1 calls)
     hinit0       :      0.05s CPU      0.05s WALL (       1 calls)

     Called by electrons:
     c_bands      :     95.27s CPU     99.66s WALL (      14 calls)
     sum_band     :     12.21s CPU     12.70s WALL (      14 calls)
     v_of_rho     :      0.07s CPU      0.08s WALL (      15 calls)
     mix_rho      :      0.01s CPU      0.02s WALL (      14 calls)

     Called by c_bands:
     init_us_2    :      0.96s CPU      1.73s WALL (    5394 calls)
     cegterg      :     86.75s CPU     90.62s WALL (    2604 calls)

     Called by sum_band:

     Called by *egterg:
     h_psi        :     66.35s CPU     70.86s WALL (    9686 calls)
     g_psi        :      0.43s CPU      0.71s WALL (    6896 calls)
     cdiaghg      :     11.87s CPU     11.92s WALL (    9500 calls)

     Called by h_psi:
     h_psi:pot    :     66.16s CPU     70.56s WALL (    9686 calls)
     h_psi:calbec :      4.67s CPU      4.51s WALL (    9686 calls)
     vloc_psi     :     60.15s CPU     61.76s WALL (    9686 calls)
     add_vuspsi   :      1.33s CPU      4.27s WALL (    9686 calls)

     General routines
     calbec       :      4.67s CPU      4.50s WALL (    9686 calls)
     fft          :      0.04s CPU      0.04s WALL (     151 calls)
     ffts         :      0.00s CPU      0.00s WALL (      14 calls)
     fftw         :     71.26s CPU     68.43s WALL (  431648 calls)
 
     Parallel routines
     fft_scatt_xy :      0.71s CPU      5.86s WALL (  431813 calls)
     fft_scatt_yz :     63.22s CPU     10.14s WALL (  431813 calls)
 
     PWSCF        :  1m50.81s CPU     2m 1.40s WALL

 
   This run was terminated on:  12:27:57  21Apr2018            

=------------------------------------------------------------------------------=
   JOB DONE.
=------------------------------------------------------------------------------=
