
     Program PWSCF v.6.2.2 starts on  8Apr2018 at  0:15:52 

     This program is part of the open-source Quantum ESPRESSO suite
     for quantum simulation of materials; please cite
         "P. Giannozzi et al., J. Phys.:Condens. Matter 21 395502 (2009);
         "P. Giannozzi et al., J. Phys.:Condens. Matter 29 465901 (2017);
          URL http://www.quantum-espresso.org", 
     in publications or presentations arising from this work. More details at
     http://www.quantum-espresso.org/quote

     Parallel version (MPI), running on     2 processors

     MPI processes distributed on     1 nodes
     R & G space division:  proc/nbgrp/npool/nimage =       2
     Reading input from Conv_etot-ecut.in
Warning: card &IONS ignored
Warning: card / ignored
Warning: card &CELL ignored
Warning: card / ignored

     Current dimensions of program PWSCF are:
     Max number of different atomic species (ntypx) = 10
     Max number of k-points (npk) =  40000
     Max angular momentum in pseudopotentials (lmaxx) =  3

     Subspace diagonalization in iterative solution of the eigenvalue problem:
     a serial algorithm will be used

 
     Parallelization info
     --------------------
     sticks:   dense  smooth     PW     G-vecs:    dense   smooth      PW
     Min         600     600    178                10337    10337    1732
     Max         601     601    179                10338    10338    1735
     Sum        1201    1201    357                20675    20675    3467
 


     bravais-lattice index     =            6
     lattice parameter (alat)  =       9.1100  a.u.
     unit-cell volume          =     506.5589 (a.u.)^3
     number of atoms/cell      =            6
     number of atomic types    =            2
     number of electrons       =        52.00
     number of Kohn-Sham states=           26
     kinetic-energy cutoff     =      45.0000  Ry
     charge density cutoff     =     180.0000  Ry
     convergence threshold     =      1.0E-12
     mixing beta               =       0.7000
     number of iterations used =            8  plain     mixing
     Exchange-correlation      = PBE ( 1  4  3  4 0 0)

     celldm(1)=   9.110000  celldm(2)=   0.000000  celldm(3)=   0.670000
     celldm(4)=   0.000000  celldm(5)=   0.000000  celldm(6)=   0.000000

     crystal axes: (cart. coord. in units of alat)
               a(1) = (   1.000000   0.000000   0.000000 )  
               a(2) = (   0.000000   1.000000   0.000000 )  
               a(3) = (   0.000000   0.000000   0.670000 )  

     reciprocal axes: (cart. coord. in units 2 pi/alat)
               b(1) = (  1.000000  0.000000  0.000000 )  
               b(2) = (  0.000000  1.000000  0.000000 )  
               b(3) = (  0.000000  0.000000  1.492537 )  


     PseudoPot. # 1 for Sn read from file:
     ../../Pseudo_potentials/Sn_PBE.upf
     MD5 check sum: 78e6386ae56e929f0568ae8bf606a80c
     Pseudo is Norm-conserving + core correction, Zval = 14.0
     Generated using ONCVPSP code by D. R. Hamann
     Using radial grid of 1628 points,  6 beta functions with: 
                l(1) =   0
                l(2) =   0
                l(3) =   1
                l(4) =   1
                l(5) =   2
                l(6) =   2

     PseudoPot. # 2 for O  read from file:
     ../../Pseudo_potentials/O_PBE.upf
     MD5 check sum: 3e3f909f7470e8921608ab6b1f57bbae
     Pseudo is Norm-conserving + core correction, Zval =  6.0
     Generated using ONCVPSP code by D. R. Hamann
     Using radial grid of  936 points,  5 beta functions with: 
                l(1) =   0
                l(2) =   0
                l(3) =   1
                l(4) =   1
                l(5) =   2

     atomic species   valence    mass     pseudopotential
        Sn            14.00   118.71000     Sn( 1.00)
        O              6.00    15.99900     O ( 1.00)

      4 Sym. Ops. (no inversion) found



   Cartesian axes

     site n.     atom                  positions (alat units)
         1           Sn  tau(   1) = (   0.0000000   0.0000000   0.0000000  )
         2           Sn  tau(   2) = (   0.5000000   0.5000000   0.3350000  )
         3           O   tau(   3) = (   0.8060000   0.1930000   0.3350000  )
         4           O   tau(   4) = (   0.1930000   0.8060000   0.3350000  )
         5           O   tau(   5) = (   0.3060000   0.3060000   0.0000000  )
         6           O   tau(   6) = (   0.6930000   0.6930000   0.0000000  )

     number of k points=   186

     Number of k-points >= 100: set verbosity='high' to print them.

     Dense  grid:    20675 G-vectors     FFT dimensions: (  40,  40,  27)

     Estimated max dynamical RAM per process >     111.41 MB

     Estimated total dynamical RAM >     222.83 MB

     Check: negative/imaginary core charge=   -0.000283    0.000000

     Initial potential from superposition of free atoms

     starting charge   51.99690, renormalised to   52.00000
     Starting wfc are   34 randomized atomic wfcs

     total cpu time spent up to now is       12.7 secs

     Self-consistent Calculation

     iteration #  1     ecut=    45.00 Ry     beta= 0.70
     Davidson diagonalization with overlap
     ethr =  1.00E-02,  avg # of iterations =  2.0

     total cpu time spent up to now is       41.0 secs

     total energy              =    -446.14185994 Ry
     Harris-Foulkes estimate   =    -447.07279163 Ry
     estimated scf accuracy    <       1.30913499 Ry

     iteration #  2     ecut=    45.00 Ry     beta= 0.70
     Davidson diagonalization with overlap
     ethr =  2.52E-03,  avg # of iterations =  3.1

     total cpu time spent up to now is       75.1 secs

     total energy              =    -446.46486770 Ry
     Harris-Foulkes estimate   =    -447.04940121 Ry
     estimated scf accuracy    <       1.17514202 Ry

     iteration #  3     ecut=    45.00 Ry     beta= 0.70
     Davidson diagonalization with overlap
     ethr =  2.26E-03,  avg # of iterations =  3.0

     total cpu time spent up to now is      108.0 secs

     total energy              =    -446.70472472 Ry
     Harris-Foulkes estimate   =    -446.70539791 Ry
     estimated scf accuracy    <       0.00643221 Ry

     iteration #  4     ecut=    45.00 Ry     beta= 0.70
     Davidson diagonalization with overlap
     ethr =  1.24E-05,  avg # of iterations =  2.7

     total cpu time spent up to now is      140.8 secs

     total energy              =    -446.70683372 Ry
     Harris-Foulkes estimate   =    -446.70689870 Ry
     estimated scf accuracy    <       0.00016542 Ry

     iteration #  5     ecut=    45.00 Ry     beta= 0.70
     Davidson diagonalization with overlap
     ethr =  3.18E-07,  avg # of iterations =  3.1

     total cpu time spent up to now is      173.9 secs

     total energy              =    -446.70688245 Ry
     Harris-Foulkes estimate   =    -446.70688141 Ry
     estimated scf accuracy    <       0.00000508 Ry

     iteration #  6     ecut=    45.00 Ry     beta= 0.70
     Davidson diagonalization with overlap
     ethr =  9.78E-09,  avg # of iterations =  3.3

     total cpu time spent up to now is      213.5 secs

     total energy              =    -446.70696770 Ry
     Harris-Foulkes estimate   =    -446.70696942 Ry
     estimated scf accuracy    <       0.00000440 Ry

     iteration #  7     ecut=    45.00 Ry     beta= 0.70
     Davidson diagonalization with overlap
     ethr =  8.46E-09,  avg # of iterations =  3.3

     total cpu time spent up to now is      247.4 secs

     total energy              =    -446.70696865 Ry
     Harris-Foulkes estimate   =    -446.70696886 Ry
     estimated scf accuracy    <       0.00000060 Ry

     iteration #  8     ecut=    45.00 Ry     beta= 0.70
     Davidson diagonalization with overlap
     ethr =  1.15E-09,  avg # of iterations =  2.7

     total cpu time spent up to now is      278.5 secs

     total energy              =    -446.70696874 Ry
     Harris-Foulkes estimate   =    -446.70696874 Ry
     estimated scf accuracy    <       0.00000002 Ry

     iteration #  9     ecut=    45.00 Ry     beta= 0.70
     Davidson diagonalization with overlap
     ethr =  3.79E-11,  avg # of iterations =  3.2

     total cpu time spent up to now is      320.0 secs

     total energy              =    -446.70696874 Ry
     Harris-Foulkes estimate   =    -446.70696875 Ry
     estimated scf accuracy    <       0.00000001 Ry

     iteration # 10     ecut=    45.00 Ry     beta= 0.70
     Davidson diagonalization with overlap
     ethr =  2.73E-11,  avg # of iterations =  3.0

     total cpu time spent up to now is      350.7 secs

     total energy              =    -446.70696875 Ry
     Harris-Foulkes estimate   =    -446.70696875 Ry
     estimated scf accuracy    <          1.5E-09 Ry

     iteration # 11     ecut=    45.00 Ry     beta= 0.70
     Davidson diagonalization with overlap
     ethr =  2.80E-12,  avg # of iterations =  2.6

     total cpu time spent up to now is      386.6 secs

     total energy              =    -446.70696875 Ry
     Harris-Foulkes estimate   =    -446.70696875 Ry
     estimated scf accuracy    <          1.9E-11 Ry

     iteration # 12     ecut=    45.00 Ry     beta= 0.70
     Davidson diagonalization with overlap
     ethr =  1.00E-13,  avg # of iterations =  2.8

     total cpu time spent up to now is      420.3 secs

     total energy              =    -446.70696875 Ry
     Harris-Foulkes estimate   =    -446.70696875 Ry
     estimated scf accuracy    <          1.5E-12 Ry

     iteration # 13     ecut=    45.00 Ry     beta= 0.70
     Davidson diagonalization with overlap
     ethr =  1.00E-13,  avg # of iterations =  1.0

     total cpu time spent up to now is      444.5 secs

     End of self-consistent calculation

     Number of k-points >= 100: set verbosity='high' to print the bands.

     highest occupied level (ev):     9.1362

!    total energy              =    -446.70696875 Ry
     Harris-Foulkes estimate   =    -446.70696875 Ry
     estimated scf accuracy    <          2.6E-13 Ry

     The total energy is the sum of the following terms:

     one-electron contribution =    -122.50230791 Ry
     hartree contribution      =     100.07009871 Ry
     xc contribution           =    -121.79342373 Ry
     ewald contribution        =    -302.48133581 Ry

     convergence has been achieved in  13 iterations

     Writing output data file SnO2.save
 
     init_run     :     12.10s CPU     12.28s WALL (       1 calls)
     electrons    :    426.54s CPU    431.88s WALL (       1 calls)

     Called by init_run:
     wfcinit      :     11.77s CPU     11.92s WALL (       1 calls)
     potinit      :      0.08s CPU      0.08s WALL (       1 calls)
     hinit0       :      0.17s CPU      0.19s WALL (       1 calls)

     Called by electrons:
     c_bands      :    383.60s CPU    388.56s WALL (      13 calls)
     sum_band     :     42.47s CPU     42.80s WALL (      13 calls)
     v_of_rho     :      0.39s CPU      0.39s WALL (      14 calls)
     mix_rho      :      0.09s CPU      0.10s WALL (      13 calls)

     Called by c_bands:
     init_us_2    :      6.60s CPU      6.74s WALL (    5022 calls)
     cegterg      :    348.92s CPU    353.67s WALL (    2418 calls)

     Called by sum_band:

     Called by *egterg:
     h_psi        :    271.44s CPU    275.69s WALL (    9248 calls)
     g_psi        :      1.84s CPU      1.86s WALL (    6644 calls)
     cdiaghg      :     27.51s CPU     26.61s WALL (    9062 calls)

     Called by h_psi:
     h_psi:pot    :    269.65s CPU    273.67s WALL (    9248 calls)
     h_psi:calbec :     29.63s CPU     27.51s WALL (    9248 calls)
     vloc_psi     :    213.92s CPU    216.18s WALL (    9248 calls)
     add_vuspsi   :     26.07s CPU     29.92s WALL (    9248 calls)

     General routines
     calbec       :     29.62s CPU     27.49s WALL (    9248 calls)
     fft          :      0.14s CPU      0.14s WALL (     141 calls)
     ffts         :      0.01s CPU      0.01s WALL (      13 calls)
     fftw         :    239.75s CPU    234.58s WALL (  413804 calls)
 
     Parallel routines
     fft_scatt_xy :     11.92s CPU     24.74s WALL (  413958 calls)
     fft_scatt_yz :    129.47s CPU     39.56s WALL (  413958 calls)
 
     PWSCF        :  7m19.76s CPU     7m28.55s WALL

 
   This run was terminated on:   0:23:21   8Apr2018            

=------------------------------------------------------------------------------=
   JOB DONE.
=------------------------------------------------------------------------------=
