
     Program PWSCF v.6.2.2 starts on 21Apr2018 at 17:44:54 

     This program is part of the open-source Quantum ESPRESSO suite
     for quantum simulation of materials; please cite
         "P. Giannozzi et al., J. Phys.:Condens. Matter 21 395502 (2009);
         "P. Giannozzi et al., J. Phys.:Condens. Matter 29 465901 (2017);
          URL http://www.quantum-espresso.org", 
     in publications or presentations arising from this work. More details at
     http://www.quantum-espresso.org/quote

     Parallel version (MPI), running on     2 processors

     MPI processes distributed on     1 nodes
     R & G space division:  proc/nbgrp/npool/nimage =       2
     Reading input from Conv_etot-ecut.in
Warning: card &IONS ignored
Warning: card / ignored
Warning: card &CELL ignored
Warning: card / ignored

     Current dimensions of program PWSCF are:
     Max number of different atomic species (ntypx) = 10
     Max number of k-points (npk) =  40000
     Max angular momentum in pseudopotentials (lmaxx) =  3

     Subspace diagonalization in iterative solution of the eigenvalue problem:
     a serial algorithm will be used

 
     Parallelization info
     --------------------
     sticks:   dense  smooth     PW     G-vecs:    dense   smooth      PW
     Min         210     210     72                 2192     2192     456
     Max         211     211     73                 2195     2195     457
     Sum         421     421    145                 4387     4387     913
 


     bravais-lattice index     =            6
     lattice parameter (alat)  =       9.1100  a.u.
     unit-cell volume          =     506.5589 (a.u.)^3
     number of atoms/cell      =            6
     number of atomic types    =            2
     number of electrons       =        52.00
     number of Kohn-Sham states=           26
     kinetic-energy cutoff     =      16.0000  Ry
     charge density cutoff     =      64.0000  Ry
     convergence threshold     =      1.0E-12
     mixing beta               =       0.7000
     number of iterations used =            8  plain     mixing
     Exchange-correlation      = PBE ( 1  4  3  4 0 0)

     celldm(1)=   9.110000  celldm(2)=   0.000000  celldm(3)=   0.670000
     celldm(4)=   0.000000  celldm(5)=   0.000000  celldm(6)=   0.000000

     crystal axes: (cart. coord. in units of alat)
               a(1) = (   1.000000   0.000000   0.000000 )  
               a(2) = (   0.000000   1.000000   0.000000 )  
               a(3) = (   0.000000   0.000000   0.670000 )  

     reciprocal axes: (cart. coord. in units 2 pi/alat)
               b(1) = (  1.000000  0.000000  0.000000 )  
               b(2) = (  0.000000  1.000000  0.000000 )  
               b(3) = (  0.000000  0.000000  1.492537 )  


     PseudoPot. # 1 for Sn read from file:
     ../../Pseudo_potentials/Sn_PBE.upf
     MD5 check sum: 78e6386ae56e929f0568ae8bf606a80c
     Pseudo is Norm-conserving + core correction, Zval = 14.0
     Generated using ONCVPSP code by D. R. Hamann
     Using radial grid of 1628 points,  6 beta functions with: 
                l(1) =   0
                l(2) =   0
                l(3) =   1
                l(4) =   1
                l(5) =   2
                l(6) =   2

     PseudoPot. # 2 for O  read from file:
     ../../Pseudo_potentials/O_PBE.upf
     MD5 check sum: 3e3f909f7470e8921608ab6b1f57bbae
     Pseudo is Norm-conserving + core correction, Zval =  6.0
     Generated using ONCVPSP code by D. R. Hamann
     Using radial grid of  936 points,  5 beta functions with: 
                l(1) =   0
                l(2) =   0
                l(3) =   1
                l(4) =   1
                l(5) =   2

     atomic species   valence    mass     pseudopotential
        Sn            14.00   118.71000     Sn( 1.00)
        O              6.00    15.99900     O ( 1.00)

      4 Sym. Ops. (no inversion) found



   Cartesian axes

     site n.     atom                  positions (alat units)
         1           Sn  tau(   1) = (   0.0000000   0.0000000   0.0000000  )
         2           Sn  tau(   2) = (   0.5000000   0.5000000   0.3350000  )
         3           O   tau(   3) = (   0.8060000   0.1930000   0.3350000  )
         4           O   tau(   4) = (   0.1930000   0.8060000   0.3350000  )
         5           O   tau(   5) = (   0.3060000   0.3060000   0.0000000  )
         6           O   tau(   6) = (   0.6930000   0.6930000   0.0000000  )

     number of k points=   301

     Number of k-points >= 100: set verbosity='high' to print them.

     Dense  grid:     4387 G-vectors     FFT dimensions: (  24,  24,  15)

     Estimated max dynamical RAM per process >      37.63 MB

     Estimated total dynamical RAM >      75.26 MB

     Check: negative/imaginary core charge=   -0.004891    0.000000

     Initial potential from superposition of free atoms
     Check: negative starting charge=   -0.052042

     starting charge   51.99690, renormalised to   52.00000

     negative rho (up, down):  5.205E-02 0.000E+00
     Starting wfc are   34 randomized atomic wfcs

     total cpu time spent up to now is        5.1 secs

     Self-consistent Calculation

     iteration #  1     ecut=    16.00 Ry     beta= 0.70
     Davidson diagonalization with overlap
     ethr =  1.00E-02,  avg # of iterations =  2.8

     negative rho (up, down):  1.503E-02 0.000E+00

     total cpu time spent up to now is       20.5 secs

     total energy              =    -398.57587806 Ry
     Harris-Foulkes estimate   =    -414.37191414 Ry
     estimated scf accuracy    <      20.51027533 Ry

     iteration #  2     ecut=    16.00 Ry     beta= 0.70
     Davidson diagonalization with overlap
     ethr =  1.00E-02,  avg # of iterations =  3.5

     negative rho (up, down):  4.333E-03 0.000E+00

     total cpu time spent up to now is       39.8 secs

     total energy              =    -402.81569295 Ry
     Harris-Foulkes estimate   =    -404.29883791 Ry
     estimated scf accuracy    <       2.42233621 Ry

     iteration #  3     ecut=    16.00 Ry     beta= 0.70
     Davidson diagonalization with overlap
     ethr =  4.66E-03,  avg # of iterations =  3.3

     negative rho (up, down):  8.884E-04 0.000E+00

     total cpu time spent up to now is       55.3 secs

     total energy              =    -403.30208104 Ry
     Harris-Foulkes estimate   =    -403.57270654 Ry
     estimated scf accuracy    <       0.48901895 Ry

     iteration #  4     ecut=    16.00 Ry     beta= 0.70
     Davidson diagonalization with overlap
     ethr =  9.40E-04,  avg # of iterations =  3.0

     total cpu time spent up to now is       68.9 secs

     total energy              =    -403.40914228 Ry
     Harris-Foulkes estimate   =    -403.42386612 Ry
     estimated scf accuracy    <       0.03161241 Ry

     iteration #  5     ecut=    16.00 Ry     beta= 0.70
     Davidson diagonalization with overlap
     ethr =  6.08E-05,  avg # of iterations =  2.6

     total cpu time spent up to now is       81.4 secs

     total energy              =    -403.41749760 Ry
     Harris-Foulkes estimate   =    -403.41801863 Ry
     estimated scf accuracy    <       0.00102187 Ry

     iteration #  6     ecut=    16.00 Ry     beta= 0.70
     Davidson diagonalization with overlap
     ethr =  1.97E-06,  avg # of iterations =  4.2

     total cpu time spent up to now is       98.4 secs

     total energy              =    -403.41831530 Ry
     Harris-Foulkes estimate   =    -403.41931958 Ry
     estimated scf accuracy    <       0.00276185 Ry

     iteration #  7     ecut=    16.00 Ry     beta= 0.70
     Davidson diagonalization with overlap
     ethr =  1.97E-06,  avg # of iterations =  3.7

     total cpu time spent up to now is      113.8 secs

     total energy              =    -403.41879776 Ry
     Harris-Foulkes estimate   =    -403.41882511 Ry
     estimated scf accuracy    <       0.00008529 Ry

     iteration #  8     ecut=    16.00 Ry     beta= 0.70
     Davidson diagonalization with overlap
     ethr =  1.64E-07,  avg # of iterations =  3.4

     total cpu time spent up to now is      127.1 secs

     total energy              =    -403.41880864 Ry
     Harris-Foulkes estimate   =    -403.41881342 Ry
     estimated scf accuracy    <       0.00001107 Ry

     iteration #  9     ecut=    16.00 Ry     beta= 0.70
     Davidson diagonalization with overlap
     ethr =  2.13E-08,  avg # of iterations =  3.4

     total cpu time spent up to now is      141.1 secs

     total energy              =    -403.41882759 Ry
     Harris-Foulkes estimate   =    -403.41882858 Ry
     estimated scf accuracy    <       0.00000324 Ry

     iteration # 10     ecut=    16.00 Ry     beta= 0.70
     Davidson diagonalization with overlap
     ethr =  6.23E-09,  avg # of iterations =  3.0

     total cpu time spent up to now is      153.5 secs

     total energy              =    -403.41882784 Ry
     Harris-Foulkes estimate   =    -403.41882793 Ry
     estimated scf accuracy    <       0.00000020 Ry

     iteration # 11     ecut=    16.00 Ry     beta= 0.70
     Davidson diagonalization with overlap
     ethr =  3.82E-10,  avg # of iterations =  3.7

     total cpu time spent up to now is      168.0 secs

     total energy              =    -403.41882788 Ry
     Harris-Foulkes estimate   =    -403.41882789 Ry
     estimated scf accuracy    <       0.00000001 Ry

     iteration # 12     ecut=    16.00 Ry     beta= 0.70
     Davidson diagonalization with overlap
     ethr =  2.65E-11,  avg # of iterations =  3.0

     total cpu time spent up to now is      182.6 secs

     total energy              =    -403.41882788 Ry
     Harris-Foulkes estimate   =    -403.41882789 Ry
     estimated scf accuracy    <          2.6E-09 Ry

     iteration # 13     ecut=    16.00 Ry     beta= 0.70
     Davidson diagonalization with overlap
     ethr =  5.03E-12,  avg # of iterations =  3.2

     total cpu time spent up to now is      196.5 secs

     total energy              =    -403.41882788 Ry
     Harris-Foulkes estimate   =    -403.41882788 Ry
     estimated scf accuracy    <          1.1E-10 Ry

     iteration # 14     ecut=    16.00 Ry     beta= 0.70
     Davidson diagonalization with overlap
     ethr =  2.08E-13,  avg # of iterations =  3.4

     total cpu time spent up to now is      212.6 secs

     total energy              =    -403.41882788 Ry
     Harris-Foulkes estimate   =    -403.41882788 Ry
     estimated scf accuracy    <          1.6E-11 Ry

     iteration # 15     ecut=    16.00 Ry     beta= 0.70
     Davidson diagonalization with overlap
     ethr =  1.00E-13,  avg # of iterations =  1.5

     total cpu time spent up to now is      222.9 secs

     total energy              =    -403.41882788 Ry
     Harris-Foulkes estimate   =    -403.41882788 Ry
     estimated scf accuracy    <          3.0E-12 Ry

     iteration # 16     ecut=    16.00 Ry     beta= 0.70
     Davidson diagonalization with overlap
     ethr =  1.00E-13,  avg # of iterations =  1.2

     total cpu time spent up to now is      232.8 secs

     End of self-consistent calculation

     Number of k-points >= 100: set verbosity='high' to print the bands.

     highest occupied level (ev):    12.0057

!    total energy              =    -403.41882788 Ry
     Harris-Foulkes estimate   =    -403.41882788 Ry
     estimated scf accuracy    <          1.9E-13 Ry

     The total energy is the sum of the following terms:

     one-electron contribution =     -57.40555870 Ry
     hartree contribution      =      66.69578615 Ry
     xc contribution           =    -110.22771941 Ry
     ewald contribution        =    -302.48133592 Ry

     convergence has been achieved in  16 iterations

     Writing output data file SnO2.save
 
     init_run     :      4.66s CPU      4.77s WALL (       1 calls)
     electrons    :    223.64s CPU    227.76s WALL (       1 calls)

     Called by init_run:
     wfcinit      :      4.58s CPU      4.68s WALL (       1 calls)
     potinit      :      0.01s CPU      0.02s WALL (       1 calls)
     hinit0       :      0.06s CPU      0.06s WALL (       1 calls)

     Called by electrons:
     c_bands      :    204.43s CPU    208.12s WALL (      16 calls)
     sum_band     :     19.12s CPU     19.55s WALL (      16 calls)
     v_of_rho     :      0.07s CPU      0.07s WALL (      17 calls)
     mix_rho      :      0.02s CPU      0.02s WALL (      16 calls)

     Called by c_bands:
     init_us_2    :      2.02s CPU      3.18s WALL (    9933 calls)
     cegterg      :    187.58s CPU    190.62s WALL (    4816 calls)

     Called by sum_band:

     Called by *egterg:
     h_psi        :    116.83s CPU    120.60s WALL (   19794 calls)
     g_psi        :      0.58s CPU      1.06s WALL (   14677 calls)
     cdiaghg      :     49.24s CPU     47.42s WALL (   19493 calls)

     Called by h_psi:
     h_psi:pot    :    116.27s CPU    119.86s WALL (   19794 calls)
     h_psi:calbec :     10.95s CPU     11.58s WALL (   19794 calls)
     vloc_psi     :     99.20s CPU     97.53s WALL (   19794 calls)
     add_vuspsi   :      6.07s CPU     10.62s WALL (   19794 calls)

     General routines
     calbec       :     10.93s CPU     11.52s WALL (   19794 calls)
     fft          :      0.03s CPU      0.04s WALL (     171 calls)
     ffts         :      0.00s CPU      0.00s WALL (      16 calls)
     fftw         :    115.50s CPU    105.90s WALL (  811656 calls)
 
     Parallel routines
     fft_scatt_xy :      1.63s CPU      8.83s WALL (  811843 calls)
     fft_scatt_yz :     99.21s CPU     25.75s WALL (  811843 calls)
 
     PWSCF        :  3m48.92s CPU     3m54.85s WALL

 
   This run was terminated on:  17:48:49  21Apr2018            

=------------------------------------------------------------------------------=
   JOB DONE.
=------------------------------------------------------------------------------=
