
     Program PWSCF v.6.2.2 starts on  7Apr2018 at 23:49:20 

     This program is part of the open-source Quantum ESPRESSO suite
     for quantum simulation of materials; please cite
         "P. Giannozzi et al., J. Phys.:Condens. Matter 21 395502 (2009);
         "P. Giannozzi et al., J. Phys.:Condens. Matter 29 465901 (2017);
          URL http://www.quantum-espresso.org", 
     in publications or presentations arising from this work. More details at
     http://www.quantum-espresso.org/quote

     Parallel version (MPI), running on     2 processors

     MPI processes distributed on     1 nodes
     R & G space division:  proc/nbgrp/npool/nimage =       2
     Reading input from Conv_etot-ecut.in
Warning: card &IONS ignored
Warning: card / ignored
Warning: card &CELL ignored
Warning: card / ignored

     Current dimensions of program PWSCF are:
     Max number of different atomic species (ntypx) = 10
     Max number of k-points (npk) =  40000
     Max angular momentum in pseudopotentials (lmaxx) =  3

     Subspace diagonalization in iterative solution of the eigenvalue problem:
     a serial algorithm will be used

 
     Parallelization info
     --------------------
     sticks:   dense  smooth     PW     G-vecs:    dense   smooth      PW
     Min         210     210     72                 2192     2192     456
     Max         211     211     73                 2195     2195     457
     Sum         421     421    145                 4387     4387     913
 


     bravais-lattice index     =            6
     lattice parameter (alat)  =       9.1100  a.u.
     unit-cell volume          =     506.5589 (a.u.)^3
     number of atoms/cell      =            6
     number of atomic types    =            2
     number of electrons       =        52.00
     number of Kohn-Sham states=           26
     kinetic-energy cutoff     =      16.0000  Ry
     charge density cutoff     =      64.0000  Ry
     convergence threshold     =      1.0E-12
     mixing beta               =       0.7000
     number of iterations used =            8  plain     mixing
     Exchange-correlation      = PBE ( 1  4  3  4 0 0)

     celldm(1)=   9.110000  celldm(2)=   0.000000  celldm(3)=   0.670000
     celldm(4)=   0.000000  celldm(5)=   0.000000  celldm(6)=   0.000000

     crystal axes: (cart. coord. in units of alat)
               a(1) = (   1.000000   0.000000   0.000000 )  
               a(2) = (   0.000000   1.000000   0.000000 )  
               a(3) = (   0.000000   0.000000   0.670000 )  

     reciprocal axes: (cart. coord. in units 2 pi/alat)
               b(1) = (  1.000000  0.000000  0.000000 )  
               b(2) = (  0.000000  1.000000  0.000000 )  
               b(3) = (  0.000000  0.000000  1.492537 )  


     PseudoPot. # 1 for Sn read from file:
     ../../Pseudo_potentials/Sn_PBE.upf
     MD5 check sum: 78e6386ae56e929f0568ae8bf606a80c
     Pseudo is Norm-conserving + core correction, Zval = 14.0
     Generated using ONCVPSP code by D. R. Hamann
     Using radial grid of 1628 points,  6 beta functions with: 
                l(1) =   0
                l(2) =   0
                l(3) =   1
                l(4) =   1
                l(5) =   2
                l(6) =   2

     PseudoPot. # 2 for O  read from file:
     ../../Pseudo_potentials/O_PBE.upf
     MD5 check sum: 3e3f909f7470e8921608ab6b1f57bbae
     Pseudo is Norm-conserving + core correction, Zval =  6.0
     Generated using ONCVPSP code by D. R. Hamann
     Using radial grid of  936 points,  5 beta functions with: 
                l(1) =   0
                l(2) =   0
                l(3) =   1
                l(4) =   1
                l(5) =   2

     atomic species   valence    mass     pseudopotential
        Sn            14.00   118.71000     Sn( 1.00)
        O              6.00    15.99900     O ( 1.00)

      4 Sym. Ops. (no inversion) found



   Cartesian axes

     site n.     atom                  positions (alat units)
         1           Sn  tau(   1) = (   0.0000000   0.0000000   0.0000000  )
         2           Sn  tau(   2) = (   0.5000000   0.5000000   0.3350000  )
         3           O   tau(   3) = (   0.8060000   0.1930000   0.3350000  )
         4           O   tau(   4) = (   0.1930000   0.8060000   0.3350000  )
         5           O   tau(   5) = (   0.3060000   0.3060000   0.0000000  )
         6           O   tau(   6) = (   0.6930000   0.6930000   0.0000000  )

     number of k points=   186

     Number of k-points >= 100: set verbosity='high' to print them.

     Dense  grid:     4387 G-vectors     FFT dimensions: (  24,  24,  15)

     Estimated max dynamical RAM per process >      25.18 MB

     Estimated total dynamical RAM >      50.35 MB

     Check: negative/imaginary core charge=   -0.004891    0.000000

     Initial potential from superposition of free atoms
     Check: negative starting charge=   -0.052042

     starting charge   51.99690, renormalised to   52.00000

     negative rho (up, down):  5.205E-02 0.000E+00
     Starting wfc are   34 randomized atomic wfcs

     total cpu time spent up to now is        3.2 secs

     Self-consistent Calculation

     iteration #  1     ecut=    16.00 Ry     beta= 0.70
     Davidson diagonalization with overlap
     ethr =  1.00E-02,  avg # of iterations =  2.9

     negative rho (up, down):  1.503E-02 0.000E+00

     total cpu time spent up to now is       12.3 secs

     total energy              =    -398.55643518 Ry
     Harris-Foulkes estimate   =    -414.36264565 Ry
     estimated scf accuracy    <      20.52328565 Ry

     iteration #  2     ecut=    16.00 Ry     beta= 0.70
     Davidson diagonalization with overlap
     ethr =  1.00E-02,  avg # of iterations =  3.5

     negative rho (up, down):  4.326E-03 0.000E+00

     total cpu time spent up to now is       23.8 secs

     total energy              =    -402.80420367 Ry
     Harris-Foulkes estimate   =    -404.28618493 Ry
     estimated scf accuracy    <       2.42115882 Ry

     iteration #  3     ecut=    16.00 Ry     beta= 0.70
     Davidson diagonalization with overlap
     ethr =  4.66E-03,  avg # of iterations =  3.3

     negative rho (up, down):  8.808E-04 0.000E+00

     total cpu time spent up to now is       33.4 secs

     total energy              =    -403.28807868 Ry
     Harris-Foulkes estimate   =    -403.55580449 Ry
     estimated scf accuracy    <       0.48314704 Ry

     iteration #  4     ecut=    16.00 Ry     beta= 0.70
     Davidson diagonalization with overlap
     ethr =  9.29E-04,  avg # of iterations =  3.0

     total cpu time spent up to now is       42.0 secs

     total energy              =    -403.39530940 Ry
     Harris-Foulkes estimate   =    -403.40996057 Ry
     estimated scf accuracy    <       0.03141576 Ry

     iteration #  5     ecut=    16.00 Ry     beta= 0.70
     Davidson diagonalization with overlap
     ethr =  6.04E-05,  avg # of iterations =  2.4

     total cpu time spent up to now is       49.7 secs

     total energy              =    -403.40431232 Ry
     Harris-Foulkes estimate   =    -403.40451146 Ry
     estimated scf accuracy    <       0.00061256 Ry

     iteration #  6     ecut=    16.00 Ry     beta= 0.70
     Davidson diagonalization with overlap
     ethr =  1.18E-06,  avg # of iterations =  3.7

     total cpu time spent up to now is       60.1 secs

     total energy              =    -403.40503145 Ry
     Harris-Foulkes estimate   =    -403.40525151 Ry
     estimated scf accuracy    <       0.00046322 Ry

     iteration #  7     ecut=    16.00 Ry     beta= 0.70
     Davidson diagonalization with overlap
     ethr =  8.91E-07,  avg # of iterations =  3.4

     total cpu time spent up to now is       69.0 secs

     total energy              =    -403.40528395 Ry
     Harris-Foulkes estimate   =    -403.40533383 Ry
     estimated scf accuracy    <       0.00014146 Ry

     iteration #  8     ecut=    16.00 Ry     beta= 0.70
     Davidson diagonalization with overlap
     ethr =  2.72E-07,  avg # of iterations =  3.3

     total cpu time spent up to now is       77.0 secs

     total energy              =    -403.40530209 Ry
     Harris-Foulkes estimate   =    -403.40530823 Ry
     estimated scf accuracy    <       0.00001425 Ry

     iteration #  9     ecut=    16.00 Ry     beta= 0.70
     Davidson diagonalization with overlap
     ethr =  2.74E-08,  avg # of iterations =  3.6

     total cpu time spent up to now is       85.8 secs

     total energy              =    -403.40530504 Ry
     Harris-Foulkes estimate   =    -403.40530615 Ry
     estimated scf accuracy    <       0.00000281 Ry

     iteration # 10     ecut=    16.00 Ry     beta= 0.70
     Davidson diagonalization with overlap
     ethr =  5.40E-09,  avg # of iterations =  3.4

     total cpu time spent up to now is       94.0 secs

     total energy              =    -403.40530549 Ry
     Harris-Foulkes estimate   =    -403.40530552 Ry
     estimated scf accuracy    <       0.00000004 Ry

     iteration # 11     ecut=    16.00 Ry     beta= 0.70
     Davidson diagonalization with overlap
     ethr =  7.84E-11,  avg # of iterations =  3.7

     total cpu time spent up to now is      104.6 secs

     total energy              =    -403.40530550 Ry
     Harris-Foulkes estimate   =    -403.40530550 Ry
     estimated scf accuracy    <          2.9E-09 Ry

     iteration # 12     ecut=    16.00 Ry     beta= 0.70
     Davidson diagonalization with overlap
     ethr =  5.60E-12,  avg # of iterations =  3.5

     total cpu time spent up to now is      114.0 secs

     total energy              =    -403.40530550 Ry
     Harris-Foulkes estimate   =    -403.40530550 Ry
     estimated scf accuracy    <          2.3E-10 Ry

     iteration # 13     ecut=    16.00 Ry     beta= 0.70
     Davidson diagonalization with overlap
     ethr =  4.51E-13,  avg # of iterations =  3.6

     total cpu time spent up to now is      123.6 secs

     total energy              =    -403.40530550 Ry
     Harris-Foulkes estimate   =    -403.40530550 Ry
     estimated scf accuracy    <          1.9E-11 Ry

     iteration # 14     ecut=    16.00 Ry     beta= 0.70
     Davidson diagonalization with overlap
     ethr =  1.00E-13,  avg # of iterations =  2.4

     total cpu time spent up to now is      130.0 secs

     total energy              =    -403.40530550 Ry
     Harris-Foulkes estimate   =    -403.40530550 Ry
     estimated scf accuracy    <          1.8E-12 Ry

     iteration # 15     ecut=    16.00 Ry     beta= 0.70
     Davidson diagonalization with overlap
     ethr =  1.00E-13,  avg # of iterations =  1.0

     total cpu time spent up to now is      135.5 secs

     End of self-consistent calculation

     Number of k-points >= 100: set verbosity='high' to print the bands.

     highest occupied level (ev):    11.9668

!    total energy              =    -403.40530550 Ry
     Harris-Foulkes estimate   =    -403.40530550 Ry
     estimated scf accuracy    <          2.0E-13 Ry

     The total energy is the sum of the following terms:

     one-electron contribution =     -57.38776439 Ry
     hartree contribution      =      66.68867254 Ry
     xc contribution           =    -110.22487774 Ry
     ewald contribution        =    -302.48133592 Ry

     convergence has been achieved in  15 iterations

     Writing output data file SnO2.save
 
     init_run     :      2.69s CPU      2.83s WALL (       1 calls)
     electrons    :    128.74s CPU    132.42s WALL (       1 calls)

     Called by init_run:
     wfcinit      :      2.60s CPU      2.74s WALL (       1 calls)
     potinit      :      0.02s CPU      0.02s WALL (       1 calls)
     hinit0       :      0.06s CPU      0.06s WALL (       1 calls)

     Called by electrons:
     c_bands      :    118.68s CPU    121.82s WALL (      15 calls)
     sum_band     :      9.94s CPU     10.39s WALL (      15 calls)
     v_of_rho     :      0.09s CPU      0.09s WALL (      16 calls)
     mix_rho      :      0.02s CPU      0.03s WALL (      15 calls)

     Called by c_bands:
     init_us_2    :      0.93s CPU      1.49s WALL (    5766 calls)
     cegterg      :    110.35s CPU    113.25s WALL (    2790 calls)

     Called by sum_band:

     Called by *egterg:
     h_psi        :     62.56s CPU     66.18s WALL (   11656 calls)
     g_psi        :      0.27s CPU      0.45s WALL (    8680 calls)
     cdiaghg      :     34.65s CPU     34.14s WALL (   11470 calls)

     Called by h_psi:
     h_psi:pot    :     62.31s CPU     65.85s WALL (   11656 calls)
     h_psi:calbec :      7.04s CPU      6.68s WALL (   11656 calls)
     vloc_psi     :     51.84s CPU     51.66s WALL (   11656 calls)
     add_vuspsi   :      3.41s CPU      7.44s WALL (   11656 calls)

     General routines
     calbec       :      7.04s CPU      6.65s WALL (   11656 calls)
     fft          :      0.03s CPU      0.03s WALL (     161 calls)
     ffts         :      0.00s CPU      0.00s WALL (      15 calls)
     fftw         :     60.66s CPU     56.06s WALL (  473522 calls)
 
     Parallel routines
     fft_scatt_xy :      0.65s CPU      6.05s WALL (  473698 calls)
     fft_scatt_yz :     54.18s CPU     12.53s WALL (  473698 calls)
 
     PWSCF        :  2m12.06s CPU     2m17.02s WALL

 
   This run was terminated on:  23:51:37   7Apr2018            

=------------------------------------------------------------------------------=
   JOB DONE.
=------------------------------------------------------------------------------=
