
     Program PWSCF v.6.2.2 starts on 21Apr2018 at 19:36:38 

     This program is part of the open-source Quantum ESPRESSO suite
     for quantum simulation of materials; please cite
         "P. Giannozzi et al., J. Phys.:Condens. Matter 21 395502 (2009);
         "P. Giannozzi et al., J. Phys.:Condens. Matter 29 465901 (2017);
          URL http://www.quantum-espresso.org", 
     in publications or presentations arising from this work. More details at
     http://www.quantum-espresso.org/quote

     Parallel version (MPI), running on     2 processors

     MPI processes distributed on     1 nodes
     R & G space division:  proc/nbgrp/npool/nimage =       2
     Reading input from Conv_etot-ecut.in
Warning: card &IONS ignored
Warning: card / ignored
Warning: card &CELL ignored
Warning: card / ignored

     Current dimensions of program PWSCF are:
     Max number of different atomic species (ntypx) = 10
     Max number of k-points (npk) =  40000
     Max angular momentum in pseudopotentials (lmaxx) =  3

     Subspace diagonalization in iterative solution of the eigenvalue problem:
     a serial algorithm will be used

 
     Parallelization info
     --------------------
     sticks:   dense  smooth     PW     G-vecs:    dense   smooth      PW
     Min         862     862    252                17957    17957    2892
     Max         863     863    253                17958    17958    2893
     Sum        1725    1725    505                35915    35915    5785
 


     bravais-lattice index     =            6
     lattice parameter (alat)  =       9.1100  a.u.
     unit-cell volume          =     506.5589 (a.u.)^3
     number of atoms/cell      =            6
     number of atomic types    =            2
     number of electrons       =        52.00
     number of Kohn-Sham states=           26
     kinetic-energy cutoff     =      65.0000  Ry
     charge density cutoff     =     260.0000  Ry
     convergence threshold     =      1.0E-12
     mixing beta               =       0.7000
     number of iterations used =            8  plain     mixing
     Exchange-correlation      = PBE ( 1  4  3  4 0 0)

     celldm(1)=   9.110000  celldm(2)=   0.000000  celldm(3)=   0.670000
     celldm(4)=   0.000000  celldm(5)=   0.000000  celldm(6)=   0.000000

     crystal axes: (cart. coord. in units of alat)
               a(1) = (   1.000000   0.000000   0.000000 )  
               a(2) = (   0.000000   1.000000   0.000000 )  
               a(3) = (   0.000000   0.000000   0.670000 )  

     reciprocal axes: (cart. coord. in units 2 pi/alat)
               b(1) = (  1.000000  0.000000  0.000000 )  
               b(2) = (  0.000000  1.000000  0.000000 )  
               b(3) = (  0.000000  0.000000  1.492537 )  


     PseudoPot. # 1 for Sn read from file:
     ../../Pseudo_potentials/Sn_PBE.upf
     MD5 check sum: 78e6386ae56e929f0568ae8bf606a80c
     Pseudo is Norm-conserving + core correction, Zval = 14.0
     Generated using ONCVPSP code by D. R. Hamann
     Using radial grid of 1628 points,  6 beta functions with: 
                l(1) =   0
                l(2) =   0
                l(3) =   1
                l(4) =   1
                l(5) =   2
                l(6) =   2

     PseudoPot. # 2 for O  read from file:
     ../../Pseudo_potentials/O_PBE.upf
     MD5 check sum: 3e3f909f7470e8921608ab6b1f57bbae
     Pseudo is Norm-conserving + core correction, Zval =  6.0
     Generated using ONCVPSP code by D. R. Hamann
     Using radial grid of  936 points,  5 beta functions with: 
                l(1) =   0
                l(2) =   0
                l(3) =   1
                l(4) =   1
                l(5) =   2

     atomic species   valence    mass     pseudopotential
        Sn            14.00   118.71000     Sn( 1.00)
        O              6.00    15.99900     O ( 1.00)

      4 Sym. Ops. (no inversion) found



   Cartesian axes

     site n.     atom                  positions (alat units)
         1           Sn  tau(   1) = (   0.0000000   0.0000000   0.0000000  )
         2           Sn  tau(   2) = (   0.5000000   0.5000000   0.3350000  )
         3           O   tau(   3) = (   0.8060000   0.1930000   0.3350000  )
         4           O   tau(   4) = (   0.1930000   0.8060000   0.3350000  )
         5           O   tau(   5) = (   0.3060000   0.3060000   0.0000000  )
         6           O   tau(   6) = (   0.6930000   0.6930000   0.0000000  )

     number of k points=   301

     Number of k-points >= 100: set verbosity='high' to print them.

     Dense  grid:    35915 G-vectors     FFT dimensions: (  48,  48,  32)

     Estimated max dynamical RAM per process >     293.45 MB

     Estimated total dynamical RAM >     586.89 MB

     Check: negative/imaginary core charge=   -0.000015    0.000000

     Initial potential from superposition of free atoms

     starting charge   51.99690, renormalised to   52.00000
     Starting wfc are   34 randomized atomic wfcs

     total cpu time spent up to now is       35.0 secs

     Self-consistent Calculation

     iteration #  1     ecut=    65.00 Ry     beta= 0.70
     Davidson diagonalization with overlap
     ethr =  1.00E-02,  avg # of iterations =  2.0

     total cpu time spent up to now is      114.0 secs

     total energy              =    -446.84504431 Ry
     Harris-Foulkes estimate   =    -448.01420999 Ry
     estimated scf accuracy    <       1.59027762 Ry

     iteration #  2     ecut=    65.00 Ry     beta= 0.70
     Davidson diagonalization with overlap
     ethr =  3.06E-03,  avg # of iterations =  3.1

     total cpu time spent up to now is      212.8 secs

     total energy              =    -447.25397762 Ry
     Harris-Foulkes estimate   =    -448.04091867 Ry
     estimated scf accuracy    <       1.61974662 Ry

     iteration #  3     ecut=    65.00 Ry     beta= 0.70
     Davidson diagonalization with overlap
     ethr =  3.06E-03,  avg # of iterations =  3.0

     total cpu time spent up to now is      308.3 secs

     total energy              =    -447.57236868 Ry
     Harris-Foulkes estimate   =    -447.57304027 Ry
     estimated scf accuracy    <       0.00603211 Ry

     iteration #  4     ecut=    65.00 Ry     beta= 0.70
     Davidson diagonalization with overlap
     ethr =  1.16E-05,  avg # of iterations =  3.0

     total cpu time spent up to now is      421.8 secs

     total energy              =    -447.57556912 Ry
     Harris-Foulkes estimate   =    -447.57581561 Ry
     estimated scf accuracy    <       0.00052056 Ry

     iteration #  5     ecut=    65.00 Ry     beta= 0.70
     Davidson diagonalization with overlap
     ethr =  1.00E-06,  avg # of iterations =  2.2

     total cpu time spent up to now is      506.3 secs

     total energy              =    -447.57560252 Ry
     Harris-Foulkes estimate   =    -447.57561477 Ry
     estimated scf accuracy    <       0.00003628 Ry

     iteration #  6     ecut=    65.00 Ry     beta= 0.70
     Davidson diagonalization with overlap
     ethr =  6.98E-08,  avg # of iterations =  3.4

     total cpu time spent up to now is      620.0 secs

     total energy              =    -447.57567590 Ry
     Harris-Foulkes estimate   =    -447.57567876 Ry
     estimated scf accuracy    <       0.00000800 Ry

     iteration #  7     ecut=    65.00 Ry     beta= 0.70
     Davidson diagonalization with overlap
     ethr =  1.54E-08,  avg # of iterations =  3.2

     total cpu time spent up to now is      708.4 secs

     total energy              =    -447.57567700 Ry
     Harris-Foulkes estimate   =    -447.57567800 Ry
     estimated scf accuracy    <       0.00000224 Ry

     iteration #  8     ecut=    65.00 Ry     beta= 0.70
     Davidson diagonalization with overlap
     ethr =  4.30E-09,  avg # of iterations =  3.0

     total cpu time spent up to now is      799.8 secs

     total energy              =    -447.57567756 Ry
     Harris-Foulkes estimate   =    -447.57567762 Ry
     estimated scf accuracy    <       0.00000014 Ry

     iteration #  9     ecut=    65.00 Ry     beta= 0.70
     Davidson diagonalization with overlap
     ethr =  2.77E-10,  avg # of iterations =  2.3

     total cpu time spent up to now is      884.4 secs

     total energy              =    -447.57567758 Ry
     Harris-Foulkes estimate   =    -447.57567759 Ry
     estimated scf accuracy    <       0.00000001 Ry

     iteration # 10     ecut=    65.00 Ry     beta= 0.70
     Davidson diagonalization with overlap
     ethr =  2.75E-11,  avg # of iterations =  3.1

     total cpu time spent up to now is      975.7 secs

     total energy              =    -447.57567758 Ry
     Harris-Foulkes estimate   =    -447.57567759 Ry
     estimated scf accuracy    <          2.1E-09 Ry

     iteration # 11     ecut=    65.00 Ry     beta= 0.70
     Davidson diagonalization with overlap
     ethr =  3.99E-12,  avg # of iterations =  3.1

     total cpu time spent up to now is     1067.3 secs

     total energy              =    -447.57567759 Ry
     Harris-Foulkes estimate   =    -447.57567759 Ry
     estimated scf accuracy    <          2.0E-10 Ry

     iteration # 12     ecut=    65.00 Ry     beta= 0.70
     Davidson diagonalization with overlap
     ethr =  3.78E-13,  avg # of iterations =  3.0

     total cpu time spent up to now is     1160.9 secs

     total energy              =    -447.57567759 Ry
     Harris-Foulkes estimate   =    -447.57567759 Ry
     estimated scf accuracy    <          4.2E-12 Ry

     iteration # 13     ecut=    65.00 Ry     beta= 0.70
     Davidson diagonalization with overlap
     ethr =  1.00E-13,  avg # of iterations =  1.1

     total cpu time spent up to now is     1230.8 secs

     End of self-consistent calculation

     Number of k-points >= 100: set verbosity='high' to print the bands.

     highest occupied level (ev):     9.0685

!    total energy              =    -447.57567759 Ry
     Harris-Foulkes estimate   =    -447.57567759 Ry
     estimated scf accuracy    <          5.0E-13 Ry

     The total energy is the sum of the following terms:

     one-electron contribution =    -124.02716145 Ry
     hartree contribution      =     101.04970094 Ry
     xc contribution           =    -122.11688128 Ry
     ewald contribution        =    -302.48133581 Ry

     convergence has been achieved in  13 iterations

     Writing output data file SnO2.save
 
     init_run     :     33.91s CPU     34.73s WALL (       1 calls)
     electrons    :   1184.91s CPU   1195.79s WALL (       1 calls)

     Called by init_run:
     wfcinit      :     33.30s CPU     34.06s WALL (       1 calls)
     potinit      :      0.12s CPU      0.12s WALL (       1 calls)
     hinit0       :      0.27s CPU      0.32s WALL (       1 calls)

     Called by electrons:
     c_bands      :   1057.51s CPU   1067.24s WALL (      13 calls)
     sum_band     :    126.71s CPU    127.82s WALL (      13 calls)
     v_of_rho     :      0.51s CPU      0.52s WALL (      14 calls)
     mix_rho      :      0.18s CPU      0.19s WALL (      13 calls)

     Called by c_bands:
     init_us_2    :     28.64s CPU     28.92s WALL (    8127 calls)
     cegterg      :    938.49s CPU    947.53s WALL (    3913 calls)

     Called by sum_band:

     Called by *egterg:
     h_psi        :    756.67s CPU    763.35s WALL (   14870 calls)
     g_psi        :      6.83s CPU      6.79s WALL (   10656 calls)
     cdiaghg      :     38.60s CPU     35.90s WALL (   14569 calls)

     Called by h_psi:
     h_psi:pot    :    744.95s CPU    751.29s WALL (   14870 calls)
     h_psi:calbec :     81.67s CPU     79.15s WALL (   14870 calls)
     vloc_psi     :    598.45s CPU    602.47s WALL (   14870 calls)
     add_vuspsi   :     64.74s CPU     69.53s WALL (   14870 calls)

     General routines
     calbec       :     81.62s CPU     79.08s WALL (   14870 calls)
     fft          :      0.26s CPU      0.29s WALL (     141 calls)
     ffts         :      0.02s CPU      0.02s WALL (      13 calls)
     fftw         :    648.07s CPU    645.76s WALL (  659286 calls)
 
     Parallel routines
     fft_scatt_xy :     33.09s CPU     48.67s WALL (  659440 calls)
     fft_scatt_yz :    213.64s CPU    126.14s WALL (  659440 calls)
 
     PWSCF        : 20m20.02s CPU    20m41.04s WALL

 
   This run was terminated on:  19:57:19  21Apr2018            

=------------------------------------------------------------------------------=
   JOB DONE.
=------------------------------------------------------------------------------=
