
     Program PWSCF v.6.2.2 starts on  8Apr2018 at  0: 4:26 

     This program is part of the open-source Quantum ESPRESSO suite
     for quantum simulation of materials; please cite
         "P. Giannozzi et al., J. Phys.:Condens. Matter 21 395502 (2009);
         "P. Giannozzi et al., J. Phys.:Condens. Matter 29 465901 (2017);
          URL http://www.quantum-espresso.org", 
     in publications or presentations arising from this work. More details at
     http://www.quantum-espresso.org/quote

     Parallel version (MPI), running on     2 processors

     MPI processes distributed on     1 nodes
     R & G space division:  proc/nbgrp/npool/nimage =       2
     Reading input from Conv_etot-ecut.in
Warning: card &IONS ignored
Warning: card / ignored
Warning: card &CELL ignored
Warning: card / ignored

     Current dimensions of program PWSCF are:
     Max number of different atomic species (ntypx) = 10
     Max number of k-points (npk) =  40000
     Max angular momentum in pseudopotentials (lmaxx) =  3

     Subspace diagonalization in iterative solution of the eigenvalue problem:
     a serial algorithm will be used

 
     Parallelization info
     --------------------
     sticks:   dense  smooth     PW     G-vecs:    dense   smooth      PW
     Min         466     466    146                 7093     7093    1252
     Max         467     467    147                 7094     7094    1253
     Sum         933     933    293                14187    14187    2505
 


     bravais-lattice index     =            6
     lattice parameter (alat)  =       9.1100  a.u.
     unit-cell volume          =     506.5589 (a.u.)^3
     number of atoms/cell      =            6
     number of atomic types    =            2
     number of electrons       =        52.00
     number of Kohn-Sham states=           26
     kinetic-energy cutoff     =      35.0000  Ry
     charge density cutoff     =     140.0000  Ry
     convergence threshold     =      1.0E-12
     mixing beta               =       0.7000
     number of iterations used =            8  plain     mixing
     Exchange-correlation      = PBE ( 1  4  3  4 0 0)

     celldm(1)=   9.110000  celldm(2)=   0.000000  celldm(3)=   0.670000
     celldm(4)=   0.000000  celldm(5)=   0.000000  celldm(6)=   0.000000

     crystal axes: (cart. coord. in units of alat)
               a(1) = (   1.000000   0.000000   0.000000 )  
               a(2) = (   0.000000   1.000000   0.000000 )  
               a(3) = (   0.000000   0.000000   0.670000 )  

     reciprocal axes: (cart. coord. in units 2 pi/alat)
               b(1) = (  1.000000  0.000000  0.000000 )  
               b(2) = (  0.000000  1.000000  0.000000 )  
               b(3) = (  0.000000  0.000000  1.492537 )  


     PseudoPot. # 1 for Sn read from file:
     ../../Pseudo_potentials/Sn_PBE.upf
     MD5 check sum: 78e6386ae56e929f0568ae8bf606a80c
     Pseudo is Norm-conserving + core correction, Zval = 14.0
     Generated using ONCVPSP code by D. R. Hamann
     Using radial grid of 1628 points,  6 beta functions with: 
                l(1) =   0
                l(2) =   0
                l(3) =   1
                l(4) =   1
                l(5) =   2
                l(6) =   2

     PseudoPot. # 2 for O  read from file:
     ../../Pseudo_potentials/O_PBE.upf
     MD5 check sum: 3e3f909f7470e8921608ab6b1f57bbae
     Pseudo is Norm-conserving + core correction, Zval =  6.0
     Generated using ONCVPSP code by D. R. Hamann
     Using radial grid of  936 points,  5 beta functions with: 
                l(1) =   0
                l(2) =   0
                l(3) =   1
                l(4) =   1
                l(5) =   2

     atomic species   valence    mass     pseudopotential
        Sn            14.00   118.71000     Sn( 1.00)
        O              6.00    15.99900     O ( 1.00)

      4 Sym. Ops. (no inversion) found



   Cartesian axes

     site n.     atom                  positions (alat units)
         1           Sn  tau(   1) = (   0.0000000   0.0000000   0.0000000  )
         2           Sn  tau(   2) = (   0.5000000   0.5000000   0.3350000  )
         3           O   tau(   3) = (   0.8060000   0.1930000   0.3350000  )
         4           O   tau(   4) = (   0.1930000   0.8060000   0.3350000  )
         5           O   tau(   5) = (   0.3060000   0.3060000   0.0000000  )
         6           O   tau(   6) = (   0.6930000   0.6930000   0.0000000  )

     number of k points=   186

     Number of k-points >= 100: set verbosity='high' to print them.

     Dense  grid:    14187 G-vectors     FFT dimensions: (  36,  36,  24)

     Estimated max dynamical RAM per process >      77.17 MB

     Estimated total dynamical RAM >     154.34 MB

     Check: negative/imaginary core charge=   -0.000823    0.000000

     Initial potential from superposition of free atoms
     Check: negative starting charge=   -0.000855

     starting charge   51.99690, renormalised to   52.00000

     negative rho (up, down):  8.547E-04 0.000E+00
     Starting wfc are   34 randomized atomic wfcs

     total cpu time spent up to now is        8.8 secs

     Self-consistent Calculation

     iteration #  1     ecut=    35.00 Ry     beta= 0.70
     Davidson diagonalization with overlap
     ethr =  1.00E-02,  avg # of iterations =  2.0

     negative rho (up, down):  2.449E-04 0.000E+00

     total cpu time spent up to now is       33.1 secs

     total energy              =    -442.65034712 Ry
     Harris-Foulkes estimate   =    -443.53954862 Ry
     estimated scf accuracy    <       1.27714406 Ry

     iteration #  2     ecut=    35.00 Ry     beta= 0.70
     Davidson diagonalization with overlap
     ethr =  2.46E-03,  avg # of iterations =  3.0

     negative rho (up, down):  1.261E-04 0.000E+00

     total cpu time spent up to now is       59.2 secs

     total energy              =    -442.91702711 Ry
     Harris-Foulkes estimate   =    -443.31064936 Ry
     estimated scf accuracy    <       0.71315705 Ry

     iteration #  3     ecut=    35.00 Ry     beta= 0.70
     Davidson diagonalization with overlap
     ethr =  1.37E-03,  avg # of iterations =  3.0

     negative rho (up, down):  1.640E-05 0.000E+00

     total cpu time spent up to now is       83.0 secs

     total energy              =    -443.09166546 Ry
     Harris-Foulkes estimate   =    -443.09954144 Ry
     estimated scf accuracy    <       0.02440354 Ry

     iteration #  4     ecut=    35.00 Ry     beta= 0.70
     Davidson diagonalization with overlap
     ethr =  4.69E-05,  avg # of iterations =  2.1

     total cpu time spent up to now is      104.6 secs

     total energy              =    -443.09544587 Ry
     Harris-Foulkes estimate   =    -443.09550691 Ry
     estimated scf accuracy    <       0.00059880 Ry

     iteration #  5     ecut=    35.00 Ry     beta= 0.70
     Davidson diagonalization with overlap
     ethr =  1.15E-06,  avg # of iterations =  3.1

     total cpu time spent up to now is      127.4 secs

     total energy              =    -443.09556917 Ry
     Harris-Foulkes estimate   =    -443.09558013 Ry
     estimated scf accuracy    <       0.00002561 Ry

     iteration #  6     ecut=    35.00 Ry     beta= 0.70
     Davidson diagonalization with overlap
     ethr =  4.93E-08,  avg # of iterations =  3.1

     total cpu time spent up to now is      150.1 secs

     total energy              =    -443.09558327 Ry
     Harris-Foulkes estimate   =    -443.09558585 Ry
     estimated scf accuracy    <       0.00000585 Ry

     iteration #  7     ecut=    35.00 Ry     beta= 0.70
     Davidson diagonalization with overlap
     ethr =  1.13E-08,  avg # of iterations =  3.2

     total cpu time spent up to now is      173.0 secs

     total energy              =    -443.09558464 Ry
     Harris-Foulkes estimate   =    -443.09558474 Ry
     estimated scf accuracy    <       0.00000043 Ry

     iteration #  8     ecut=    35.00 Ry     beta= 0.70
     Davidson diagonalization with overlap
     ethr =  8.35E-10,  avg # of iterations =  3.1

     total cpu time spent up to now is      196.3 secs

     total energy              =    -443.09558473 Ry
     Harris-Foulkes estimate   =    -443.09558473 Ry
     estimated scf accuracy    <       0.00000002 Ry

     iteration #  9     ecut=    35.00 Ry     beta= 0.70
     Davidson diagonalization with overlap
     ethr =  4.75E-11,  avg # of iterations =  3.8

     total cpu time spent up to now is      221.6 secs

     total energy              =    -443.09558473 Ry
     Harris-Foulkes estimate   =    -443.09558474 Ry
     estimated scf accuracy    <       0.00000002 Ry

     iteration # 10     ecut=    35.00 Ry     beta= 0.70
     Davidson diagonalization with overlap
     ethr =  3.76E-11,  avg # of iterations =  3.0

     total cpu time spent up to now is      243.8 secs

     total energy              =    -443.09558474 Ry
     Harris-Foulkes estimate   =    -443.09558474 Ry
     estimated scf accuracy    <          8.3E-11 Ry

     iteration # 11     ecut=    35.00 Ry     beta= 0.70
     Davidson diagonalization with overlap
     ethr =  1.60E-13,  avg # of iterations =  3.2

     total cpu time spent up to now is      271.4 secs

     total energy              =    -443.09558474 Ry
     Harris-Foulkes estimate   =    -443.09558474 Ry
     estimated scf accuracy    <          7.7E-12 Ry

     iteration # 12     ecut=    35.00 Ry     beta= 0.70
     Davidson diagonalization with overlap
     ethr =  1.00E-13,  avg # of iterations =  1.2

     total cpu time spent up to now is      288.2 secs

     End of self-consistent calculation

     Number of k-points >= 100: set verbosity='high' to print the bands.

     highest occupied level (ev):     9.3974

!    total energy              =    -443.09558474 Ry
     Harris-Foulkes estimate   =    -443.09558474 Ry
     estimated scf accuracy    <          8.9E-13 Ry

     The total energy is the sum of the following terms:

     one-electron contribution =    -116.40174276 Ry
     hartree contribution      =      96.35808006 Ry
     xc contribution           =    -120.57058623 Ry
     ewald contribution        =    -302.48133580 Ry

     convergence has been achieved in  12 iterations

     Writing output data file SnO2.save
 
     init_run     :      8.26s CPU      8.46s WALL (       1 calls)
     electrons    :    273.04s CPU    279.36s WALL (       1 calls)

     Called by init_run:
     wfcinit      :      8.01s CPU      8.21s WALL (       1 calls)
     potinit      :      0.06s CPU      0.06s WALL (       1 calls)
     hinit0       :      0.15s CPU      0.16s WALL (       1 calls)

     Called by electrons:
     c_bands      :    247.36s CPU    252.93s WALL (      12 calls)
     sum_band     :     25.39s CPU     26.10s WALL (      12 calls)
     v_of_rho     :      0.24s CPU      0.24s WALL (      13 calls)
     mix_rho      :      0.05s CPU      0.06s WALL (      12 calls)

     Called by c_bands:
     init_us_2    :      3.55s CPU      4.04s WALL (    4650 calls)
     cegterg      :    225.61s CPU    230.99s WALL (    2232 calls)

     Called by sum_band:

     Called by *egterg:
     h_psi        :    168.88s CPU    174.68s WALL (    8705 calls)
     g_psi        :      1.09s CPU      1.16s WALL (    6287 calls)
     cdiaghg      :     25.30s CPU     24.85s WALL (    8519 calls)

     Called by h_psi:
     h_psi:pot    :    167.95s CPU    173.53s WALL (    8705 calls)
     h_psi:calbec :     18.40s CPU     17.32s WALL (    8705 calls)
     vloc_psi     :    134.35s CPU    137.17s WALL (    8705 calls)
     add_vuspsi   :     15.18s CPU     18.99s WALL (    8705 calls)

     General routines
     calbec       :     18.40s CPU     17.30s WALL (    8705 calls)
     fft          :      0.08s CPU      0.08s WALL (     131 calls)
     ffts         :      0.01s CPU      0.01s WALL (      12 calls)
     fftw         :    153.63s CPU    147.97s WALL (  384228 calls)
 
     Parallel routines
     fft_scatt_xy :      4.26s CPU     13.86s WALL (  384371 calls)
     fft_scatt_yz :    110.73s CPU     27.29s WALL (  384371 calls)
 
     PWSCF        :  4m42.14s CPU     4m50.77s WALL

 
   This run was terminated on:   0: 9:17   8Apr2018            

=------------------------------------------------------------------------------=
   JOB DONE.
=------------------------------------------------------------------------------=
