
     Program PWSCF v.6.2.2 starts on 21Apr2018 at 17:38:20 

     This program is part of the open-source Quantum ESPRESSO suite
     for quantum simulation of materials; please cite
         "P. Giannozzi et al., J. Phys.:Condens. Matter 21 395502 (2009);
         "P. Giannozzi et al., J. Phys.:Condens. Matter 29 465901 (2017);
          URL http://www.quantum-espresso.org", 
     in publications or presentations arising from this work. More details at
     http://www.quantum-espresso.org/quote

     Parallel version (MPI), running on     2 processors

     MPI processes distributed on     1 nodes
     R & G space division:  proc/nbgrp/npool/nimage =       2
     Reading input from Conv_etot-ecut.in
Warning: card &IONS ignored
Warning: card / ignored
Warning: card &CELL ignored
Warning: card / ignored

     Current dimensions of program PWSCF are:
     Max number of different atomic species (ntypx) = 10
     Max number of k-points (npk) =  40000
     Max angular momentum in pseudopotentials (lmaxx) =  3

     Subspace diagonalization in iterative solution of the eigenvalue problem:
     a serial algorithm will be used

 
     Parallelization info
     --------------------
     sticks:   dense  smooth     PW     G-vecs:    dense   smooth      PW
     Min         158     158     56                 1432     1432     304
     Max         159     159     57                 1433     1433     305
     Sum         317     317    113                 2865     2865     609
 


     bravais-lattice index     =            6
     lattice parameter (alat)  =       9.1100  a.u.
     unit-cell volume          =     506.5589 (a.u.)^3
     number of atoms/cell      =            6
     number of atomic types    =            2
     number of electrons       =        52.00
     number of Kohn-Sham states=           26
     kinetic-energy cutoff     =      12.0000  Ry
     charge density cutoff     =      48.0000  Ry
     convergence threshold     =      1.0E-12
     mixing beta               =       0.7000
     number of iterations used =            8  plain     mixing
     Exchange-correlation      = PBE ( 1  4  3  4 0 0)

     celldm(1)=   9.110000  celldm(2)=   0.000000  celldm(3)=   0.670000
     celldm(4)=   0.000000  celldm(5)=   0.000000  celldm(6)=   0.000000

     crystal axes: (cart. coord. in units of alat)
               a(1) = (   1.000000   0.000000   0.000000 )  
               a(2) = (   0.000000   1.000000   0.000000 )  
               a(3) = (   0.000000   0.000000   0.670000 )  

     reciprocal axes: (cart. coord. in units 2 pi/alat)
               b(1) = (  1.000000  0.000000  0.000000 )  
               b(2) = (  0.000000  1.000000  0.000000 )  
               b(3) = (  0.000000  0.000000  1.492537 )  


     PseudoPot. # 1 for Sn read from file:
     ../../Pseudo_potentials/Sn_PBE.upf
     MD5 check sum: 78e6386ae56e929f0568ae8bf606a80c
     Pseudo is Norm-conserving + core correction, Zval = 14.0
     Generated using ONCVPSP code by D. R. Hamann
     Using radial grid of 1628 points,  6 beta functions with: 
                l(1) =   0
                l(2) =   0
                l(3) =   1
                l(4) =   1
                l(5) =   2
                l(6) =   2

     PseudoPot. # 2 for O  read from file:
     ../../Pseudo_potentials/O_PBE.upf
     MD5 check sum: 3e3f909f7470e8921608ab6b1f57bbae
     Pseudo is Norm-conserving + core correction, Zval =  6.0
     Generated using ONCVPSP code by D. R. Hamann
     Using radial grid of  936 points,  5 beta functions with: 
                l(1) =   0
                l(2) =   0
                l(3) =   1
                l(4) =   1
                l(5) =   2

     atomic species   valence    mass     pseudopotential
        Sn            14.00   118.71000     Sn( 1.00)
        O              6.00    15.99900     O ( 1.00)

      4 Sym. Ops. (no inversion) found



   Cartesian axes

     site n.     atom                  positions (alat units)
         1           Sn  tau(   1) = (   0.0000000   0.0000000   0.0000000  )
         2           Sn  tau(   2) = (   0.5000000   0.5000000   0.3350000  )
         3           O   tau(   3) = (   0.8060000   0.1930000   0.3350000  )
         4           O   tau(   4) = (   0.1930000   0.8060000   0.3350000  )
         5           O   tau(   5) = (   0.3060000   0.3060000   0.0000000  )
         6           O   tau(   6) = (   0.6930000   0.6930000   0.0000000  )

     number of k points=   301

     Number of k-points >= 100: set verbosity='high' to print them.

     Dense  grid:     2865 G-vectors     FFT dimensions: (  24,  24,  15)

     Estimated max dynamical RAM per process >      25.23 MB

     Estimated total dynamical RAM >      50.46 MB

     Check: negative/imaginary core charge=   -0.006454    0.000000

     Initial potential from superposition of free atoms
     Check: negative starting charge=   -0.065968

     starting charge   51.99690, renormalised to   52.00000

     negative rho (up, down):  6.597E-02 0.000E+00
     Starting wfc are   34 randomized atomic wfcs

     total cpu time spent up to now is        4.2 secs

     Self-consistent Calculation

     iteration #  1     ecut=    12.00 Ry     beta= 0.70
     Davidson diagonalization with overlap
     ethr =  1.00E-02,  avg # of iterations =  3.4

     negative rho (up, down):  1.350E-02 0.000E+00

     total cpu time spent up to now is       18.7 secs

     total energy              =    -376.83953497 Ry
     Harris-Foulkes estimate   =    -405.51742360 Ry
     estimated scf accuracy    <      36.57086652 Ry

     iteration #  2     ecut=    12.00 Ry     beta= 0.70
     Davidson diagonalization with overlap
     ethr =  1.00E-02,  avg # of iterations =  3.2

     negative rho (up, down):  2.529E-03 0.000E+00

     total cpu time spent up to now is       35.0 secs

     total energy              =    -382.91676425 Ry
     Harris-Foulkes estimate   =    -387.94033387 Ry
     estimated scf accuracy    <       8.31599418 Ry

     iteration #  3     ecut=    12.00 Ry     beta= 0.70
     Davidson diagonalization with overlap
     ethr =  1.00E-02,  avg # of iterations =  3.2

     total cpu time spent up to now is       49.5 secs

     total energy              =    -384.71438974 Ry
     Harris-Foulkes estimate   =    -385.40218642 Ry
     estimated scf accuracy    <       1.13615891 Ry

     iteration #  4     ecut=    12.00 Ry     beta= 0.70
     Davidson diagonalization with overlap
     ethr =  2.18E-03,  avg # of iterations =  2.2

     total cpu time spent up to now is       60.9 secs

     total energy              =    -384.95478016 Ry
     Harris-Foulkes estimate   =    -384.97920195 Ry
     estimated scf accuracy    <       0.04778172 Ry

     iteration #  5     ecut=    12.00 Ry     beta= 0.70
     Davidson diagonalization with overlap
     ethr =  9.19E-05,  avg # of iterations =  2.6

     total cpu time spent up to now is       72.1 secs

     total energy              =    -384.96448733 Ry
     Harris-Foulkes estimate   =    -384.96478434 Ry
     estimated scf accuracy    <       0.00066062 Ry

     iteration #  6     ecut=    12.00 Ry     beta= 0.70
     Davidson diagonalization with overlap
     ethr =  1.27E-06,  avg # of iterations =  3.2

     total cpu time spent up to now is       85.7 secs

     total energy              =    -384.96579671 Ry
     Harris-Foulkes estimate   =    -384.96604054 Ry
     estimated scf accuracy    <       0.00044617 Ry

     iteration #  7     ecut=    12.00 Ry     beta= 0.70
     Davidson diagonalization with overlap
     ethr =  8.58E-07,  avg # of iterations =  3.0

     total cpu time spent up to now is       98.2 secs

     total energy              =    -384.96591415 Ry
     Harris-Foulkes estimate   =    -384.96596353 Ry
     estimated scf accuracy    <       0.00012105 Ry

     iteration #  8     ecut=    12.00 Ry     beta= 0.70
     Davidson diagonalization with overlap
     ethr =  2.33E-07,  avg # of iterations =  2.6

     total cpu time spent up to now is      109.0 secs

     total energy              =    -384.96593421 Ry
     Harris-Foulkes estimate   =    -384.96593493 Ry
     estimated scf accuracy    <       0.00000091 Ry

     iteration #  9     ecut=    12.00 Ry     beta= 0.70
     Davidson diagonalization with overlap
     ethr =  1.75E-09,  avg # of iterations =  3.3

     total cpu time spent up to now is      122.7 secs

     total energy              =    -384.96593466 Ry
     Harris-Foulkes estimate   =    -384.96593463 Ry
     estimated scf accuracy    <       0.00000006 Ry

     iteration # 10     ecut=    12.00 Ry     beta= 0.70
     Davidson diagonalization with overlap
     ethr =  1.20E-10,  avg # of iterations =  3.4

     total cpu time spent up to now is      135.7 secs

     total energy              =    -384.96593470 Ry
     Harris-Foulkes estimate   =    -384.96593467 Ry
     estimated scf accuracy    <       0.00000002 Ry

     iteration # 11     ecut=    12.00 Ry     beta= 0.70
     Davidson diagonalization with overlap
     ethr =  4.02E-11,  avg # of iterations =  3.1

     total cpu time spent up to now is      148.8 secs

     total energy              =    -384.96593471 Ry
     Harris-Foulkes estimate   =    -384.96593471 Ry
     estimated scf accuracy    <          3.6E-09 Ry

     iteration # 12     ecut=    12.00 Ry     beta= 0.70
     Davidson diagonalization with overlap
     ethr =  6.88E-12,  avg # of iterations =  3.2

     total cpu time spent up to now is      161.9 secs

     total energy              =    -384.96593471 Ry
     Harris-Foulkes estimate   =    -384.96593471 Ry
     estimated scf accuracy    <          1.2E-09 Ry

     iteration # 13     ecut=    12.00 Ry     beta= 0.70
     Davidson diagonalization with overlap
     ethr =  2.27E-12,  avg # of iterations =  3.0

     total cpu time spent up to now is      173.3 secs

     total energy              =    -384.96593471 Ry
     Harris-Foulkes estimate   =    -384.96593471 Ry
     estimated scf accuracy    <          7.2E-12 Ry

     iteration # 14     ecut=    12.00 Ry     beta= 0.70
     Davidson diagonalization with overlap
     ethr =  1.00E-13,  avg # of iterations =  2.2

     total cpu time spent up to now is      182.6 secs

     End of self-consistent calculation

     Number of k-points >= 100: set verbosity='high' to print the bands.

     highest occupied level (ev):    15.6281

!    total energy              =    -384.96593471 Ry
     Harris-Foulkes estimate   =    -384.96593471 Ry
     estimated scf accuracy    <          8.2E-13 Ry

     The total energy is the sum of the following terms:

     one-electron contribution =     -30.96536421 Ry
     hartree contribution      =      54.85659292 Ry
     xc contribution           =    -106.37582744 Ry
     ewald contribution        =    -302.48133598 Ry

     convergence has been achieved in  14 iterations

     Writing output data file SnO2.save
 
     init_run     :      3.74s CPU      3.86s WALL (       1 calls)
     electrons    :    173.94s CPU    178.46s WALL (       1 calls)

     Called by init_run:
     wfcinit      :      3.68s CPU      3.80s WALL (       1 calls)
     potinit      :      0.01s CPU      0.01s WALL (       1 calls)
     hinit0       :      0.04s CPU      0.05s WALL (       1 calls)

     Called by electrons:
     c_bands      :    159.25s CPU    163.38s WALL (      14 calls)
     sum_band     :     14.62s CPU     15.00s WALL (      14 calls)
     v_of_rho     :      0.06s CPU      0.06s WALL (      15 calls)
     mix_rho      :      0.01s CPU      0.01s WALL (      14 calls)

     Called by c_bands:
     init_us_2    :      0.65s CPU      1.64s WALL (    8729 calls)
     cegterg      :    150.55s CPU    153.68s WALL (    4214 calls)

     Called by sum_band:

     Called by *egterg:
     h_psi        :     94.43s CPU     99.36s WALL (   17041 calls)
     g_psi        :      0.27s CPU      0.68s WALL (   12526 calls)
     cdiaghg      :     41.68s CPU     41.33s WALL (   16740 calls)

     Called by h_psi:
     h_psi:pot    :     94.31s CPU     99.03s WALL (   17041 calls)
     h_psi:calbec :      7.91s CPU      6.82s WALL (   17041 calls)
     vloc_psi     :     85.06s CPU     86.11s WALL (   17041 calls)
     add_vuspsi   :      1.32s CPU      5.99s WALL (   17041 calls)

     General routines
     calbec       :      7.91s CPU      6.77s WALL (   17041 calls)
     fft          :      0.04s CPU      0.03s WALL (     151 calls)
     ffts         :      0.00s CPU      0.00s WALL (      14 calls)
     fftw         :     98.28s CPU     92.23s WALL (  764482 calls)
 
     Parallel routines
     fft_scatt_xy :      0.93s CPU      7.90s WALL (  764647 calls)
     fft_scatt_yz :     89.45s CPU     19.54s WALL (  764647 calls)
 
     PWSCF        :  2m58.24s CPU     3m 4.14s WALL

 
   This run was terminated on:  17:41:24  21Apr2018            

=------------------------------------------------------------------------------=
   JOB DONE.
=------------------------------------------------------------------------------=
