
     Program PWSCF v.6.2.2 starts on 21Apr2018 at 19:57:21 

     This program is part of the open-source Quantum ESPRESSO suite
     for quantum simulation of materials; please cite
         "P. Giannozzi et al., J. Phys.:Condens. Matter 21 395502 (2009);
         "P. Giannozzi et al., J. Phys.:Condens. Matter 29 465901 (2017);
          URL http://www.quantum-espresso.org", 
     in publications or presentations arising from this work. More details at
     http://www.quantum-espresso.org/quote

     Parallel version (MPI), running on     2 processors

     MPI processes distributed on     1 nodes
     R & G space division:  proc/nbgrp/npool/nimage =       2
     Reading input from Conv_etot-ecut.in
Warning: card &IONS ignored
Warning: card / ignored
Warning: card &CELL ignored
Warning: card / ignored

     Current dimensions of program PWSCF are:
     Max number of different atomic species (ntypx) = 10
     Max number of k-points (npk) =  40000
     Max angular momentum in pseudopotentials (lmaxx) =  3

     Subspace diagonalization in iterative solution of the eigenvalue problem:
     a serial algorithm will be used

 
     Parallelization info
     --------------------
     sticks:   dense  smooth     PW     G-vecs:    dense   smooth      PW
     Min         930     930    276                20054    20054    3220
     Max         931     931    277                20055    20055    3221
     Sum        1861    1861    553                40109    40109    6441
 


     bravais-lattice index     =            6
     lattice parameter (alat)  =       9.1100  a.u.
     unit-cell volume          =     506.5589 (a.u.)^3
     number of atoms/cell      =            6
     number of atomic types    =            2
     number of electrons       =        52.00
     number of Kohn-Sham states=           26
     kinetic-energy cutoff     =      70.0000  Ry
     charge density cutoff     =     280.0000  Ry
     convergence threshold     =      1.0E-12
     mixing beta               =       0.7000
     number of iterations used =            8  plain     mixing
     Exchange-correlation      = PBE ( 1  4  3  4 0 0)

     celldm(1)=   9.110000  celldm(2)=   0.000000  celldm(3)=   0.670000
     celldm(4)=   0.000000  celldm(5)=   0.000000  celldm(6)=   0.000000

     crystal axes: (cart. coord. in units of alat)
               a(1) = (   1.000000   0.000000   0.000000 )  
               a(2) = (   0.000000   1.000000   0.000000 )  
               a(3) = (   0.000000   0.000000   0.670000 )  

     reciprocal axes: (cart. coord. in units 2 pi/alat)
               b(1) = (  1.000000  0.000000  0.000000 )  
               b(2) = (  0.000000  1.000000  0.000000 )  
               b(3) = (  0.000000  0.000000  1.492537 )  


     PseudoPot. # 1 for Sn read from file:
     ../../Pseudo_potentials/Sn_PBE.upf
     MD5 check sum: 78e6386ae56e929f0568ae8bf606a80c
     Pseudo is Norm-conserving + core correction, Zval = 14.0
     Generated using ONCVPSP code by D. R. Hamann
     Using radial grid of 1628 points,  6 beta functions with: 
                l(1) =   0
                l(2) =   0
                l(3) =   1
                l(4) =   1
                l(5) =   2
                l(6) =   2

     PseudoPot. # 2 for O  read from file:
     ../../Pseudo_potentials/O_PBE.upf
     MD5 check sum: 3e3f909f7470e8921608ab6b1f57bbae
     Pseudo is Norm-conserving + core correction, Zval =  6.0
     Generated using ONCVPSP code by D. R. Hamann
     Using radial grid of  936 points,  5 beta functions with: 
                l(1) =   0
                l(2) =   0
                l(3) =   1
                l(4) =   1
                l(5) =   2

     atomic species   valence    mass     pseudopotential
        Sn            14.00   118.71000     Sn( 1.00)
        O              6.00    15.99900     O ( 1.00)

      4 Sym. Ops. (no inversion) found



   Cartesian axes

     site n.     atom                  positions (alat units)
         1           Sn  tau(   1) = (   0.0000000   0.0000000   0.0000000  )
         2           Sn  tau(   2) = (   0.5000000   0.5000000   0.3350000  )
         3           O   tau(   3) = (   0.8060000   0.1930000   0.3350000  )
         4           O   tau(   4) = (   0.1930000   0.8060000   0.3350000  )
         5           O   tau(   5) = (   0.3060000   0.3060000   0.0000000  )
         6           O   tau(   6) = (   0.6930000   0.6930000   0.0000000  )

     number of k points=   301

     Number of k-points >= 100: set verbosity='high' to print them.

     Dense  grid:    40109 G-vectors     FFT dimensions: (  50,  50,  36)

     Estimated max dynamical RAM per process >     327.91 MB

     Estimated total dynamical RAM >     655.81 MB

     Check: negative/imaginary core charge=   -0.000006    0.000000

     Initial potential from superposition of free atoms

     starting charge   51.99690, renormalised to   52.00000
     Starting wfc are   34 randomized atomic wfcs

     total cpu time spent up to now is       43.1 secs

     Self-consistent Calculation

     iteration #  1     ecut=    70.00 Ry     beta= 0.70
     Davidson diagonalization with overlap
     ethr =  1.00E-02,  avg # of iterations =  2.0

     total cpu time spent up to now is      141.5 secs

     total energy              =    -446.84921369 Ry
     Harris-Foulkes estimate   =    -448.02707706 Ry
     estimated scf accuracy    <       1.60027315 Ry

     iteration #  2     ecut=    70.00 Ry     beta= 0.70
     Davidson diagonalization with overlap
     ethr =  3.08E-03,  avg # of iterations =  3.1

     total cpu time spent up to now is      267.3 secs

     total energy              =    -447.26094098 Ry
     Harris-Foulkes estimate   =    -448.05549079 Ry
     estimated scf accuracy    <       1.63671292 Ry

     iteration #  3     ecut=    70.00 Ry     beta= 0.70
     Davidson diagonalization with overlap
     ethr =  3.08E-03,  avg # of iterations =  3.0

     total cpu time spent up to now is      390.7 secs

     total energy              =    -447.58231885 Ry
     Harris-Foulkes estimate   =    -447.58298318 Ry
     estimated scf accuracy    <       0.00602443 Ry

     iteration #  4     ecut=    70.00 Ry     beta= 0.70
     Davidson diagonalization with overlap
     ethr =  1.16E-05,  avg # of iterations =  3.0

     total cpu time spent up to now is      525.0 secs

     total energy              =    -447.58556999 Ry
     Harris-Foulkes estimate   =    -447.58582259 Ry
     estimated scf accuracy    <       0.00053396 Ry

     iteration #  5     ecut=    70.00 Ry     beta= 0.70
     Davidson diagonalization with overlap
     ethr =  1.03E-06,  avg # of iterations =  2.1

     total cpu time spent up to now is      625.8 secs

     total energy              =    -447.58560234 Ry
     Harris-Foulkes estimate   =    -447.58561538 Ry
     estimated scf accuracy    <       0.00003781 Ry

     iteration #  6     ecut=    70.00 Ry     beta= 0.70
     Davidson diagonalization with overlap
     ethr =  7.27E-08,  avg # of iterations =  3.4

     total cpu time spent up to now is      762.1 secs

     total energy              =    -447.58567678 Ry
     Harris-Foulkes estimate   =    -447.58567952 Ry
     estimated scf accuracy    <       0.00000773 Ry

     iteration #  7     ecut=    70.00 Ry     beta= 0.70
     Davidson diagonalization with overlap
     ethr =  1.49E-08,  avg # of iterations =  3.2

     total cpu time spent up to now is      879.5 secs

     total energy              =    -447.58567773 Ry
     Harris-Foulkes estimate   =    -447.58567875 Ry
     estimated scf accuracy    <       0.00000228 Ry

     iteration #  8     ecut=    70.00 Ry     beta= 0.70
     Davidson diagonalization with overlap
     ethr =  4.39E-09,  avg # of iterations =  3.0

     total cpu time spent up to now is     1000.5 secs

     total energy              =    -447.58567831 Ry
     Harris-Foulkes estimate   =    -447.58567836 Ry
     estimated scf accuracy    <       0.00000014 Ry

     iteration #  9     ecut=    70.00 Ry     beta= 0.70
     Davidson diagonalization with overlap
     ethr =  2.69E-10,  avg # of iterations =  2.1

     total cpu time spent up to now is     1111.1 secs

     total energy              =    -447.58567833 Ry
     Harris-Foulkes estimate   =    -447.58567833 Ry
     estimated scf accuracy    <          8.7E-09 Ry

     iteration # 10     ecut=    70.00 Ry     beta= 0.70
     Davidson diagonalization with overlap
     ethr =  1.66E-11,  avg # of iterations =  3.2

     total cpu time spent up to now is     1250.2 secs

     total energy              =    -447.58567833 Ry
     Harris-Foulkes estimate   =    -447.58567833 Ry
     estimated scf accuracy    <          7.1E-10 Ry

     iteration # 11     ecut=    70.00 Ry     beta= 0.70
     Davidson diagonalization with overlap
     ethr =  1.36E-12,  avg # of iterations =  3.2

     total cpu time spent up to now is     1372.3 secs

     total energy              =    -447.58567833 Ry
     Harris-Foulkes estimate   =    -447.58567833 Ry
     estimated scf accuracy    <          3.3E-10 Ry

     iteration # 12     ecut=    70.00 Ry     beta= 0.70
     Davidson diagonalization with overlap
     ethr =  6.41E-13,  avg # of iterations =  3.0

     total cpu time spent up to now is     1490.7 secs

     total energy              =    -447.58567833 Ry
     Harris-Foulkes estimate   =    -447.58567833 Ry
     estimated scf accuracy    <          8.1E-12 Ry

     iteration # 13     ecut=    70.00 Ry     beta= 0.70
     Davidson diagonalization with overlap
     ethr =  1.00E-13,  avg # of iterations =  1.9

     total cpu time spent up to now is     1595.2 secs

     total energy              =    -447.58567833 Ry
     Harris-Foulkes estimate   =    -447.58567833 Ry
     estimated scf accuracy    <          1.0E-12 Ry

     iteration # 14     ecut=    70.00 Ry     beta= 0.70
     Davidson diagonalization with overlap
     ethr =  1.00E-13,  avg # of iterations =  1.0

     total cpu time spent up to now is     1692.7 secs

     End of self-consistent calculation

     Number of k-points >= 100: set verbosity='high' to print the bands.

     highest occupied level (ev):     9.0663

!    total energy              =    -447.58567833 Ry
     Harris-Foulkes estimate   =    -447.58567833 Ry
     estimated scf accuracy    <          1.7E-13 Ry

     The total energy is the sum of the following terms:

     one-electron contribution =    -124.04478883 Ry
     hartree contribution      =     101.06222402 Ry
     xc contribution           =    -122.12177772 Ry
     ewald contribution        =    -302.48133580 Ry

     convergence has been achieved in  14 iterations

     Writing output data file SnO2.save
 
     init_run     :     41.14s CPU     42.48s WALL (       1 calls)
     electrons    :   1593.11s CPU   1649.66s WALL (       1 calls)

     Called by init_run:
     wfcinit      :     40.67s CPU     41.90s WALL (       1 calls)
     potinit      :      0.13s CPU      0.14s WALL (       1 calls)
     hinit0       :      0.31s CPU      0.40s WALL (       1 calls)

     Called by electrons:
     c_bands      :   1409.10s CPU   1458.51s WALL (      14 calls)
     sum_band     :    183.04s CPU    190.10s WALL (      14 calls)
     v_of_rho     :      0.71s CPU      0.74s WALL (      15 calls)
     mix_rho      :      0.25s CPU      0.28s WALL (      14 calls)

     Called by c_bands:
     init_us_2    :     34.12s CPU     35.34s WALL (    8729 calls)
     cegterg      :   1265.07s CPU   1310.44s WALL (    4214 calls)

     Called by sum_band:

     Called by *egterg:
     h_psi        :   1054.95s CPU   1090.80s WALL (   15687 calls)
     g_psi        :      8.00s CPU      8.08s WALL (   11172 calls)
     cdiaghg      :     39.17s CPU     37.79s WALL (   15386 calls)

     Called by h_psi:
     h_psi:pot    :   1041.68s CPU   1076.50s WALL (   15687 calls)
     h_psi:calbec :     97.37s CPU     96.46s WALL (   15687 calls)
     vloc_psi     :    868.96s CPU    897.73s WALL (   15687 calls)
     add_vuspsi   :     75.26s CPU     82.16s WALL (   15687 calls)

     General routines
     calbec       :     97.34s CPU     96.39s WALL (   15687 calls)
     fft          :      0.36s CPU      0.39s WALL (     151 calls)
     ffts         :      0.03s CPU      0.03s WALL (      14 calls)
     fftw         :    955.11s CPU    978.52s WALL (  705822 calls)
 
     Parallel routines
     fft_scatt_xy :     46.51s CPU     68.88s WALL (  705987 calls)
     fft_scatt_yz :    376.86s CPU    199.45s WALL (  705987 calls)
 
     PWSCF        : 27m15.82s CPU    28m24.20s WALL

 
   This run was terminated on:  20:25:45  21Apr2018            

=------------------------------------------------------------------------------=
   JOB DONE.
=------------------------------------------------------------------------------=
