
     Program PWSCF v.6.2.2 starts on  8Apr2018 at  0: 0:14 

     This program is part of the open-source Quantum ESPRESSO suite
     for quantum simulation of materials; please cite
         "P. Giannozzi et al., J. Phys.:Condens. Matter 21 395502 (2009);
         "P. Giannozzi et al., J. Phys.:Condens. Matter 29 465901 (2017);
          URL http://www.quantum-espresso.org", 
     in publications or presentations arising from this work. More details at
     http://www.quantum-espresso.org/quote

     Parallel version (MPI), running on     2 processors

     MPI processes distributed on     1 nodes
     R & G space division:  proc/nbgrp/npool/nimage =       2
     Reading input from Conv_etot-ecut.in
Warning: card &IONS ignored
Warning: card / ignored
Warning: card &CELL ignored
Warning: card / ignored

     Current dimensions of program PWSCF are:
     Max number of different atomic species (ntypx) = 10
     Max number of k-points (npk) =  40000
     Max angular momentum in pseudopotentials (lmaxx) =  3

     Subspace diagonalization in iterative solution of the eigenvalue problem:
     a serial algorithm will be used

 
     Parallelization info
     --------------------
     sticks:   dense  smooth     PW     G-vecs:    dense   smooth      PW
     Min         396     396    124                 5618     5618     978
     Max         397     397    125                 5619     5619     979
     Sum         793     793    249                11237    11237    1957
 


     bravais-lattice index     =            6
     lattice parameter (alat)  =       9.1100  a.u.
     unit-cell volume          =     506.5589 (a.u.)^3
     number of atoms/cell      =            6
     number of atomic types    =            2
     number of electrons       =        52.00
     number of Kohn-Sham states=           26
     kinetic-energy cutoff     =      30.0000  Ry
     charge density cutoff     =     120.0000  Ry
     convergence threshold     =      1.0E-12
     mixing beta               =       0.7000
     number of iterations used =            8  plain     mixing
     Exchange-correlation      = PBE ( 1  4  3  4 0 0)

     celldm(1)=   9.110000  celldm(2)=   0.000000  celldm(3)=   0.670000
     celldm(4)=   0.000000  celldm(5)=   0.000000  celldm(6)=   0.000000

     crystal axes: (cart. coord. in units of alat)
               a(1) = (   1.000000   0.000000   0.000000 )  
               a(2) = (   0.000000   1.000000   0.000000 )  
               a(3) = (   0.000000   0.000000   0.670000 )  

     reciprocal axes: (cart. coord. in units 2 pi/alat)
               b(1) = (  1.000000  0.000000  0.000000 )  
               b(2) = (  0.000000  1.000000  0.000000 )  
               b(3) = (  0.000000  0.000000  1.492537 )  


     PseudoPot. # 1 for Sn read from file:
     ../../Pseudo_potentials/Sn_PBE.upf
     MD5 check sum: 78e6386ae56e929f0568ae8bf606a80c
     Pseudo is Norm-conserving + core correction, Zval = 14.0
     Generated using ONCVPSP code by D. R. Hamann
     Using radial grid of 1628 points,  6 beta functions with: 
                l(1) =   0
                l(2) =   0
                l(3) =   1
                l(4) =   1
                l(5) =   2
                l(6) =   2

     PseudoPot. # 2 for O  read from file:
     ../../Pseudo_potentials/O_PBE.upf
     MD5 check sum: 3e3f909f7470e8921608ab6b1f57bbae
     Pseudo is Norm-conserving + core correction, Zval =  6.0
     Generated using ONCVPSP code by D. R. Hamann
     Using radial grid of  936 points,  5 beta functions with: 
                l(1) =   0
                l(2) =   0
                l(3) =   1
                l(4) =   1
                l(5) =   2

     atomic species   valence    mass     pseudopotential
        Sn            14.00   118.71000     Sn( 1.00)
        O              6.00    15.99900     O ( 1.00)

      4 Sym. Ops. (no inversion) found



   Cartesian axes

     site n.     atom                  positions (alat units)
         1           Sn  tau(   1) = (   0.0000000   0.0000000   0.0000000  )
         2           Sn  tau(   2) = (   0.5000000   0.5000000   0.3350000  )
         3           O   tau(   3) = (   0.8060000   0.1930000   0.3350000  )
         4           O   tau(   4) = (   0.1930000   0.8060000   0.3350000  )
         5           O   tau(   5) = (   0.3060000   0.3060000   0.0000000  )
         6           O   tau(   6) = (   0.6930000   0.6930000   0.0000000  )

     number of k points=   186

     Number of k-points >= 100: set verbosity='high' to print them.

     Dense  grid:    11237 G-vectors     FFT dimensions: (  32,  32,  24)

     Estimated max dynamical RAM per process >      61.76 MB

     Estimated total dynamical RAM >     123.52 MB

     Check: negative/imaginary core charge=   -0.001432    0.000000

     Initial potential from superposition of free atoms
     Check: negative starting charge=   -0.003011

     starting charge   51.99690, renormalised to   52.00000

     negative rho (up, down):  3.011E-03 0.000E+00
     Starting wfc are   34 randomized atomic wfcs

     total cpu time spent up to now is        7.0 secs

     Self-consistent Calculation

     iteration #  1     ecut=    30.00 Ry     beta= 0.70
     Davidson diagonalization with overlap
     ethr =  1.00E-02,  avg # of iterations =  2.0

     negative rho (up, down):  8.932E-04 0.000E+00

     total cpu time spent up to now is       25.6 secs

     total energy              =    -437.94874411 Ry
     Harris-Foulkes estimate   =    -439.32275242 Ry
     estimated scf accuracy    <       1.93977249 Ry

     iteration #  2     ecut=    30.00 Ry     beta= 0.70
     Davidson diagonalization with overlap
     ethr =  3.73E-03,  avg # of iterations =  3.0

     negative rho (up, down):  3.982E-04 0.000E+00

     total cpu time spent up to now is       46.3 secs

     total energy              =    -438.29510042 Ry
     Harris-Foulkes estimate   =    -438.58404575 Ry
     estimated scf accuracy    <       0.45680971 Ry

     iteration #  3     ecut=    30.00 Ry     beta= 0.70
     Davidson diagonalization with overlap
     ethr =  8.78E-04,  avg # of iterations =  3.1

     negative rho (up, down):  1.102E-04 0.000E+00

     total cpu time spent up to now is       65.5 secs

     total energy              =    -438.42595528 Ry
     Harris-Foulkes estimate   =    -438.46312880 Ry
     estimated scf accuracy    <       0.08276685 Ry

     iteration #  4     ecut=    30.00 Ry     beta= 0.70
     Davidson diagonalization with overlap
     ethr =  1.59E-04,  avg # of iterations =  2.1

     total cpu time spent up to now is       82.3 secs

     total energy              =    -438.44042940 Ry
     Harris-Foulkes estimate   =    -438.44053588 Ry
     estimated scf accuracy    <       0.00119807 Ry

     iteration #  5     ecut=    30.00 Ry     beta= 0.70
     Davidson diagonalization with overlap
     ethr =  2.30E-06,  avg # of iterations =  3.2

     total cpu time spent up to now is      101.7 secs

     total energy              =    -438.44111976 Ry
     Harris-Foulkes estimate   =    -438.44112558 Ry
     estimated scf accuracy    <       0.00002181 Ry

     iteration #  6     ecut=    30.00 Ry     beta= 0.70
     Davidson diagonalization with overlap
     ethr =  4.19E-08,  avg # of iterations =  3.2

     total cpu time spent up to now is      123.6 secs

     total energy              =    -438.44112279 Ry
     Harris-Foulkes estimate   =    -438.44112721 Ry
     estimated scf accuracy    <       0.00000876 Ry

     iteration #  7     ecut=    30.00 Ry     beta= 0.70
     Davidson diagonalization with overlap
     ethr =  1.68E-08,  avg # of iterations =  3.3

     total cpu time spent up to now is      141.9 secs

     total energy              =    -438.44112491 Ry
     Harris-Foulkes estimate   =    -438.44112545 Ry
     estimated scf accuracy    <       0.00000128 Ry

     iteration #  8     ecut=    30.00 Ry     beta= 0.70
     Davidson diagonalization with overlap
     ethr =  2.46E-09,  avg # of iterations =  3.0

     total cpu time spent up to now is      159.5 secs

     total energy              =    -438.44112516 Ry
     Harris-Foulkes estimate   =    -438.44112517 Ry
     estimated scf accuracy    <       0.00000001 Ry

     iteration #  9     ecut=    30.00 Ry     beta= 0.70
     Davidson diagonalization with overlap
     ethr =  2.04E-11,  avg # of iterations =  3.1

     total cpu time spent up to now is      180.5 secs

     total energy              =    -438.44112517 Ry
     Harris-Foulkes estimate   =    -438.44112517 Ry
     estimated scf accuracy    <          2.2E-09 Ry

     iteration # 10     ecut=    30.00 Ry     beta= 0.70
     Davidson diagonalization with overlap
     ethr =  4.15E-12,  avg # of iterations =  3.2

     total cpu time spent up to now is      200.7 secs

     total energy              =    -438.44112517 Ry
     Harris-Foulkes estimate   =    -438.44112517 Ry
     estimated scf accuracy    <          5.9E-10 Ry

     iteration # 11     ecut=    30.00 Ry     beta= 0.70
     Davidson diagonalization with overlap
     ethr =  1.13E-12,  avg # of iterations =  3.1

     total cpu time spent up to now is      218.8 secs

     total energy              =    -438.44112517 Ry
     Harris-Foulkes estimate   =    -438.44112517 Ry
     estimated scf accuracy    <          4.0E-11 Ry

     iteration # 12     ecut=    30.00 Ry     beta= 0.70
     Davidson diagonalization with overlap
     ethr =  1.00E-13,  avg # of iterations =  2.9

     total cpu time spent up to now is      235.9 secs

     total energy              =    -438.44112517 Ry
     Harris-Foulkes estimate   =    -438.44112517 Ry
     estimated scf accuracy    <          1.4E-12 Ry

     iteration # 13     ecut=    30.00 Ry     beta= 0.70
     Davidson diagonalization with overlap
     ethr =  1.00E-13,  avg # of iterations =  1.0

     total cpu time spent up to now is      248.8 secs

     End of self-consistent calculation

     Number of k-points >= 100: set verbosity='high' to print the bands.

     highest occupied level (ev):     9.6053

!    total energy              =    -438.44112517 Ry
     Harris-Foulkes estimate   =    -438.44112517 Ry
     estimated scf accuracy    <          1.4E-13 Ry

     The total energy is the sum of the following terms:

     one-electron contribution =    -108.91133000 Ry
     hartree contribution      =      92.08844562 Ry
     xc contribution           =    -119.13690488 Ry
     ewald contribution        =    -302.48133591 Ry

     convergence has been achieved in  13 iterations

     Writing output data file SnO2.save
 
     init_run     :      6.44s CPU      6.57s WALL (       1 calls)
     electrons    :    236.70s CPU    241.88s WALL (       1 calls)

     Called by init_run:
     wfcinit      :      6.25s CPU      6.38s WALL (       1 calls)
     potinit      :      0.05s CPU      0.05s WALL (       1 calls)
     hinit0       :      0.11s CPU      0.11s WALL (       1 calls)

     Called by electrons:
     c_bands      :    213.04s CPU    217.33s WALL (      13 calls)
     sum_band     :     23.40s CPU     24.24s WALL (      13 calls)
     v_of_rho     :      0.21s CPU      0.21s WALL (      14 calls)
     mix_rho      :      0.05s CPU      0.05s WALL (      13 calls)

     Called by c_bands:
     init_us_2    :      2.83s CPU      3.40s WALL (    5022 calls)
     cegterg      :    194.32s CPU    198.43s WALL (    2418 calls)

     Called by sum_band:

     Called by *egterg:
     h_psi        :    139.80s CPU    143.90s WALL (    9337 calls)
     g_psi        :      0.99s CPU      1.02s WALL (    6733 calls)
     cdiaghg      :     27.21s CPU     26.65s WALL (    9151 calls)

     Called by h_psi:
     h_psi:pot    :    139.02s CPU    142.98s WALL (    9337 calls)
     h_psi:calbec :     15.50s CPU     14.64s WALL (    9337 calls)
     vloc_psi     :    111.28s CPU    112.30s WALL (    9337 calls)
     add_vuspsi   :     12.22s CPU     15.99s WALL (    9337 calls)

     General routines
     calbec       :     15.50s CPU     14.61s WALL (    9337 calls)
     fft          :      0.08s CPU      0.08s WALL (     141 calls)
     ffts         :      0.00s CPU      0.01s WALL (      13 calls)
     fftw         :    129.99s CPU    123.36s WALL (  417430 calls)
 
     Parallel routines
     fft_scatt_xy :      5.46s CPU     24.68s WALL (  417584 calls)
     fft_scatt_yz :    104.78s CPU     29.41s WALL (  417584 calls)
 
     PWSCF        :  4m 3.90s CPU     4m11.09s WALL

 
   This run was terminated on:   0: 4:25   8Apr2018            

=------------------------------------------------------------------------------=
   JOB DONE.
=------------------------------------------------------------------------------=
