
     Program PWSCF v.6.2.2 starts on 21Apr2018 at 18:58:30 

     This program is part of the open-source Quantum ESPRESSO suite
     for quantum simulation of materials; please cite
         "P. Giannozzi et al., J. Phys.:Condens. Matter 21 395502 (2009);
         "P. Giannozzi et al., J. Phys.:Condens. Matter 29 465901 (2017);
          URL http://www.quantum-espresso.org", 
     in publications or presentations arising from this work. More details at
     http://www.quantum-espresso.org/quote

     Parallel version (MPI), running on     2 processors

     MPI processes distributed on     1 nodes
     R & G space division:  proc/nbgrp/npool/nimage =       2
     Reading input from Conv_etot-ecut.in
Warning: card &IONS ignored
Warning: card / ignored
Warning: card &CELL ignored
Warning: card / ignored

     Current dimensions of program PWSCF are:
     Max number of different atomic species (ntypx) = 10
     Max number of k-points (npk) =  40000
     Max angular momentum in pseudopotentials (lmaxx) =  3

     Subspace diagonalization in iterative solution of the eigenvalue problem:
     a serial algorithm will be used

 
     Parallelization info
     --------------------
     sticks:   dense  smooth     PW     G-vecs:    dense   smooth      PW
     Min         728     728    218                13962    13962    2293
     Max         729     729    219                13963    13963    2294
     Sum        1457    1457    437                27925    27925    4587
 


     bravais-lattice index     =            6
     lattice parameter (alat)  =       9.1100  a.u.
     unit-cell volume          =     506.5589 (a.u.)^3
     number of atoms/cell      =            6
     number of atomic types    =            2
     number of electrons       =        52.00
     number of Kohn-Sham states=           26
     kinetic-energy cutoff     =      55.0000  Ry
     charge density cutoff     =     220.0000  Ry
     convergence threshold     =      1.0E-12
     mixing beta               =       0.7000
     number of iterations used =            8  plain     mixing
     Exchange-correlation      = PBE ( 1  4  3  4 0 0)

     celldm(1)=   9.110000  celldm(2)=   0.000000  celldm(3)=   0.670000
     celldm(4)=   0.000000  celldm(5)=   0.000000  celldm(6)=   0.000000

     crystal axes: (cart. coord. in units of alat)
               a(1) = (   1.000000   0.000000   0.000000 )  
               a(2) = (   0.000000   1.000000   0.000000 )  
               a(3) = (   0.000000   0.000000   0.670000 )  

     reciprocal axes: (cart. coord. in units 2 pi/alat)
               b(1) = (  1.000000  0.000000  0.000000 )  
               b(2) = (  0.000000  1.000000  0.000000 )  
               b(3) = (  0.000000  0.000000  1.492537 )  


     PseudoPot. # 1 for Sn read from file:
     ../../Pseudo_potentials/Sn_PBE.upf
     MD5 check sum: 78e6386ae56e929f0568ae8bf606a80c
     Pseudo is Norm-conserving + core correction, Zval = 14.0
     Generated using ONCVPSP code by D. R. Hamann
     Using radial grid of 1628 points,  6 beta functions with: 
                l(1) =   0
                l(2) =   0
                l(3) =   1
                l(4) =   1
                l(5) =   2
                l(6) =   2

     PseudoPot. # 2 for O  read from file:
     ../../Pseudo_potentials/O_PBE.upf
     MD5 check sum: 3e3f909f7470e8921608ab6b1f57bbae
     Pseudo is Norm-conserving + core correction, Zval =  6.0
     Generated using ONCVPSP code by D. R. Hamann
     Using radial grid of  936 points,  5 beta functions with: 
                l(1) =   0
                l(2) =   0
                l(3) =   1
                l(4) =   1
                l(5) =   2

     atomic species   valence    mass     pseudopotential
        Sn            14.00   118.71000     Sn( 1.00)
        O              6.00    15.99900     O ( 1.00)

      4 Sym. Ops. (no inversion) found



   Cartesian axes

     site n.     atom                  positions (alat units)
         1           Sn  tau(   1) = (   0.0000000   0.0000000   0.0000000  )
         2           Sn  tau(   2) = (   0.5000000   0.5000000   0.3350000  )
         3           O   tau(   3) = (   0.8060000   0.1930000   0.3350000  )
         4           O   tau(   4) = (   0.1930000   0.8060000   0.3350000  )
         5           O   tau(   5) = (   0.3060000   0.3060000   0.0000000  )
         6           O   tau(   6) = (   0.6930000   0.6930000   0.0000000  )

     number of k points=   301

     Number of k-points >= 100: set verbosity='high' to print them.

     Dense  grid:    27925 G-vectors     FFT dimensions: (  45,  45,  30)

     Estimated max dynamical RAM per process >     229.13 MB

     Estimated total dynamical RAM >     458.26 MB

     Check: negative/imaginary core charge=   -0.000076    0.000000

     Initial potential from superposition of free atoms

     starting charge   51.99690, renormalised to   52.00000
     Starting wfc are   34 randomized atomic wfcs

     total cpu time spent up to now is       29.8 secs

     Self-consistent Calculation

     iteration #  1     ecut=    55.00 Ry     beta= 0.70
     Davidson diagonalization with overlap
     ethr =  1.00E-02,  avg # of iterations =  2.0

     total cpu time spent up to now is       98.2 secs

     total energy              =    -446.77295912 Ry
     Harris-Foulkes estimate   =    -447.88519568 Ry
     estimated scf accuracy    <       1.52337871 Ry

     iteration #  2     ecut=    55.00 Ry     beta= 0.70
     Davidson diagonalization with overlap
     ethr =  2.93E-03,  avg # of iterations =  3.0

     total cpu time spent up to now is      184.6 secs

     total energy              =    -447.16285362 Ry
     Harris-Foulkes estimate   =    -447.90127953 Ry
     estimated scf accuracy    <       1.51304100 Ry

     iteration #  3     ecut=    55.00 Ry     beta= 0.70
     Davidson diagonalization with overlap
     ethr =  2.91E-03,  avg # of iterations =  3.0

     total cpu time spent up to now is      267.6 secs

     total energy              =    -447.46200719 Ry
     Harris-Foulkes estimate   =    -447.46265728 Ry
     estimated scf accuracy    <       0.00599390 Ry

     iteration #  4     ecut=    55.00 Ry     beta= 0.70
     Davidson diagonalization with overlap
     ethr =  1.15E-05,  avg # of iterations =  2.9

     total cpu time spent up to now is      356.5 secs

     total energy              =    -447.46485917 Ry
     Harris-Foulkes estimate   =    -447.46505310 Ry
     estimated scf accuracy    <       0.00041458 Ry

     iteration #  5     ecut=    55.00 Ry     beta= 0.70
     Davidson diagonalization with overlap
     ethr =  7.97E-07,  avg # of iterations =  3.0

     total cpu time spent up to now is      426.7 secs

     total energy              =    -447.46489210 Ry
     Harris-Foulkes estimate   =    -447.46490002 Ry
     estimated scf accuracy    <       0.00002702 Ry

     iteration #  6     ecut=    55.00 Ry     beta= 0.70
     Davidson diagonalization with overlap
     ethr =  5.20E-08,  avg # of iterations =  3.1

     total cpu time spent up to now is      519.3 secs

     total energy              =    -447.46495948 Ry
     Harris-Foulkes estimate   =    -447.46496291 Ry
     estimated scf accuracy    <       0.00000908 Ry

     iteration #  7     ecut=    55.00 Ry     beta= 0.70
     Davidson diagonalization with overlap
     ethr =  1.75E-08,  avg # of iterations =  3.1

     total cpu time spent up to now is      598.6 secs

     total energy              =    -447.46496089 Ry
     Harris-Foulkes estimate   =    -447.46496156 Ry
     estimated scf accuracy    <       0.00000153 Ry

     iteration #  8     ecut=    55.00 Ry     beta= 0.70
     Davidson diagonalization with overlap
     ethr =  2.95E-09,  avg # of iterations =  3.0

     total cpu time spent up to now is      685.8 secs

     total energy              =    -447.46496128 Ry
     Harris-Foulkes estimate   =    -447.46496131 Ry
     estimated scf accuracy    <       0.00000009 Ry

     iteration #  9     ecut=    55.00 Ry     beta= 0.70
     Davidson diagonalization with overlap
     ethr =  1.64E-10,  avg # of iterations =  3.0

     total cpu time spent up to now is      768.1 secs

     total energy              =    -447.46496129 Ry
     Harris-Foulkes estimate   =    -447.46496130 Ry
     estimated scf accuracy    <       0.00000002 Ry

     iteration # 10     ecut=    55.00 Ry     beta= 0.70
     Davidson diagonalization with overlap
     ethr =  4.47E-11,  avg # of iterations =  3.0

     total cpu time spent up to now is      845.6 secs

     total energy              =    -447.46496130 Ry
     Harris-Foulkes estimate   =    -447.46496130 Ry
     estimated scf accuracy    <          1.6E-09 Ry

     iteration # 11     ecut=    55.00 Ry     beta= 0.70
     Davidson diagonalization with overlap
     ethr =  3.00E-12,  avg # of iterations =  3.0

     total cpu time spent up to now is      933.1 secs

     total energy              =    -447.46496130 Ry
     Harris-Foulkes estimate   =    -447.46496130 Ry
     estimated scf accuracy    <          5.5E-11 Ry

     iteration # 12     ecut=    55.00 Ry     beta= 0.70
     Davidson diagonalization with overlap
     ethr =  1.07E-13,  avg # of iterations =  3.1

     total cpu time spent up to now is     1024.6 secs

     total energy              =    -447.46496130 Ry
     Harris-Foulkes estimate   =    -447.46496130 Ry
     estimated scf accuracy    <          6.3E-12 Ry

     iteration # 13     ecut=    55.00 Ry     beta= 0.70
     Davidson diagonalization with overlap
     ethr =  1.00E-13,  avg # of iterations =  1.0

     total cpu time spent up to now is     1086.1 secs

     End of self-consistent calculation

     Number of k-points >= 100: set verbosity='high' to print the bands.

     highest occupied level (ev):     9.0741

!    total energy              =    -447.46496130 Ry
     Harris-Foulkes estimate   =    -447.46496130 Ry
     estimated scf accuracy    <          5.7E-13 Ry

     The total energy is the sum of the following terms:

     one-electron contribution =    -123.82672849 Ry
     hartree contribution      =     100.91378533 Ry
     xc contribution           =    -122.07068233 Ry
     ewald contribution        =    -302.48133581 Ry

     convergence has been achieved in  13 iterations

     Writing output data file SnO2.save
 
     init_run     :     28.68s CPU     29.46s WALL (       1 calls)
     electrons    :   1028.10s CPU   1056.34s WALL (       1 calls)

     Called by init_run:
     wfcinit      :     28.25s CPU     29.01s WALL (       1 calls)
     potinit      :      0.09s CPU      0.10s WALL (       1 calls)
     hinit0       :      0.21s CPU      0.22s WALL (       1 calls)

     Called by electrons:
     c_bands      :    916.41s CPU    941.95s WALL (      13 calls)
     sum_band     :    111.12s CPU    113.78s WALL (      13 calls)
     v_of_rho     :      0.43s CPU      0.45s WALL (      14 calls)
     mix_rho      :      0.13s CPU      0.14s WALL (      13 calls)

     Called by c_bands:
     init_us_2    :     19.14s CPU     19.94s WALL (    8127 calls)
     cegterg      :    825.53s CPU    849.12s WALL (    3913 calls)

     Called by sum_band:

     Called by *egterg:
     h_psi        :    674.04s CPU    694.19s WALL (   15137 calls)
     g_psi        :      5.51s CPU      5.50s WALL (   10923 calls)
     cdiaghg      :     38.58s CPU     37.30s WALL (   14836 calls)

     Called by h_psi:
     h_psi:pot    :    667.23s CPU    686.65s WALL (   15137 calls)
     h_psi:calbec :     64.21s CPU     63.42s WALL (   15137 calls)
     vloc_psi     :    556.78s CPU    570.18s WALL (   15137 calls)
     add_vuspsi   :     46.18s CPU     52.92s WALL (   15137 calls)

     General routines
     calbec       :     64.20s CPU     63.36s WALL (   15137 calls)
     fft          :      0.21s CPU      0.24s WALL (     141 calls)
     ffts         :      0.02s CPU      0.02s WALL (      13 calls)
     fftw         :    621.90s CPU    620.72s WALL (  672002 calls)
 
     Parallel routines
     fft_scatt_xy :     23.02s CPU     39.77s WALL (  672156 calls)
     fft_scatt_yz :    295.56s CPU    117.84s WALL (  672156 calls)
 
     PWSCF        : 17m37.87s CPU    18m13.33s WALL

 
   This run was terminated on:  19:16:44  21Apr2018            

=------------------------------------------------------------------------------=
   JOB DONE.
=------------------------------------------------------------------------------=
