
     Program PWSCF v.6.2.2 starts on  7Apr2018 at 23:44:48 

     This program is part of the open-source Quantum ESPRESSO suite
     for quantum simulation of materials; please cite
         "P. Giannozzi et al., J. Phys.:Condens. Matter 21 395502 (2009);
         "P. Giannozzi et al., J. Phys.:Condens. Matter 29 465901 (2017);
          URL http://www.quantum-espresso.org", 
     in publications or presentations arising from this work. More details at
     http://www.quantum-espresso.org/quote

     Parallel version (MPI), running on     2 processors

     MPI processes distributed on     1 nodes
     R & G space division:  proc/nbgrp/npool/nimage =       2
     Reading input from Conv_etot-ecut.in
Warning: card &IONS ignored
Warning: card / ignored
Warning: card &CELL ignored
Warning: card / ignored

     Current dimensions of program PWSCF are:
     Max number of different atomic species (ntypx) = 10
     Max number of k-points (npk) =  40000
     Max angular momentum in pseudopotentials (lmaxx) =  3

     Subspace diagonalization in iterative solution of the eigenvalue problem:
     a serial algorithm will be used

 
     Parallelization info
     --------------------
     sticks:   dense  smooth     PW     G-vecs:    dense   smooth      PW
     Min         158     158     56                 1432     1432     304
     Max         159     159     57                 1433     1433     305
     Sum         317     317    113                 2865     2865     609
 


     bravais-lattice index     =            6
     lattice parameter (alat)  =       9.1100  a.u.
     unit-cell volume          =     506.5589 (a.u.)^3
     number of atoms/cell      =            6
     number of atomic types    =            2
     number of electrons       =        52.00
     number of Kohn-Sham states=           26
     kinetic-energy cutoff     =      12.0000  Ry
     charge density cutoff     =      48.0000  Ry
     convergence threshold     =      1.0E-12
     mixing beta               =       0.7000
     number of iterations used =            8  plain     mixing
     Exchange-correlation      = PBE ( 1  4  3  4 0 0)

     celldm(1)=   9.110000  celldm(2)=   0.000000  celldm(3)=   0.670000
     celldm(4)=   0.000000  celldm(5)=   0.000000  celldm(6)=   0.000000

     crystal axes: (cart. coord. in units of alat)
               a(1) = (   1.000000   0.000000   0.000000 )  
               a(2) = (   0.000000   1.000000   0.000000 )  
               a(3) = (   0.000000   0.000000   0.670000 )  

     reciprocal axes: (cart. coord. in units 2 pi/alat)
               b(1) = (  1.000000  0.000000  0.000000 )  
               b(2) = (  0.000000  1.000000  0.000000 )  
               b(3) = (  0.000000  0.000000  1.492537 )  


     PseudoPot. # 1 for Sn read from file:
     ../../Pseudo_potentials/Sn_PBE.upf
     MD5 check sum: 78e6386ae56e929f0568ae8bf606a80c
     Pseudo is Norm-conserving + core correction, Zval = 14.0
     Generated using ONCVPSP code by D. R. Hamann
     Using radial grid of 1628 points,  6 beta functions with: 
                l(1) =   0
                l(2) =   0
                l(3) =   1
                l(4) =   1
                l(5) =   2
                l(6) =   2

     PseudoPot. # 2 for O  read from file:
     ../../Pseudo_potentials/O_PBE.upf
     MD5 check sum: 3e3f909f7470e8921608ab6b1f57bbae
     Pseudo is Norm-conserving + core correction, Zval =  6.0
     Generated using ONCVPSP code by D. R. Hamann
     Using radial grid of  936 points,  5 beta functions with: 
                l(1) =   0
                l(2) =   0
                l(3) =   1
                l(4) =   1
                l(5) =   2

     atomic species   valence    mass     pseudopotential
        Sn            14.00   118.71000     Sn( 1.00)
        O              6.00    15.99900     O ( 1.00)

      4 Sym. Ops. (no inversion) found



   Cartesian axes

     site n.     atom                  positions (alat units)
         1           Sn  tau(   1) = (   0.0000000   0.0000000   0.0000000  )
         2           Sn  tau(   2) = (   0.5000000   0.5000000   0.3350000  )
         3           O   tau(   3) = (   0.8060000   0.1930000   0.3350000  )
         4           O   tau(   4) = (   0.1930000   0.8060000   0.3350000  )
         5           O   tau(   5) = (   0.3060000   0.3060000   0.0000000  )
         6           O   tau(   6) = (   0.6930000   0.6930000   0.0000000  )

     number of k points=   186

     Number of k-points >= 100: set verbosity='high' to print them.

     Dense  grid:     2865 G-vectors     FFT dimensions: (  24,  24,  15)

     Estimated max dynamical RAM per process >      17.11 MB

     Estimated total dynamical RAM >      34.22 MB

     Check: negative/imaginary core charge=   -0.006454    0.000000

     Initial potential from superposition of free atoms
     Check: negative starting charge=   -0.065968

     starting charge   51.99690, renormalised to   52.00000

     negative rho (up, down):  6.597E-02 0.000E+00
     Starting wfc are   34 randomized atomic wfcs

     total cpu time spent up to now is        2.9 secs

     Self-consistent Calculation

     iteration #  1     ecut=    12.00 Ry     beta= 0.70
     Davidson diagonalization with overlap
     ethr =  1.00E-02,  avg # of iterations =  3.4

     negative rho (up, down):  1.350E-02 0.000E+00

     total cpu time spent up to now is       12.3 secs

     total energy              =    -376.85424156 Ry
     Harris-Foulkes estimate   =    -405.51536401 Ry
     estimated scf accuracy    <      36.55343713 Ry

     iteration #  2     ecut=    12.00 Ry     beta= 0.70
     Davidson diagonalization with overlap
     ethr =  1.00E-02,  avg # of iterations =  3.2

     negative rho (up, down):  2.528E-03 0.000E+00

     total cpu time spent up to now is       23.3 secs

     total energy              =    -382.91463281 Ry
     Harris-Foulkes estimate   =    -387.92248425 Ry
     estimated scf accuracy    <       8.28892971 Ry

     iteration #  3     ecut=    12.00 Ry     beta= 0.70
     Davidson diagonalization with overlap
     ethr =  1.00E-02,  avg # of iterations =  3.2

     total cpu time spent up to now is       32.7 secs

     total energy              =    -384.70645779 Ry
     Harris-Foulkes estimate   =    -385.39400378 Ry
     estimated scf accuracy    <       1.13534726 Ry

     iteration #  4     ecut=    12.00 Ry     beta= 0.70
     Davidson diagonalization with overlap
     ethr =  2.18E-03,  avg # of iterations =  2.2

     total cpu time spent up to now is       40.7 secs

     total energy              =    -384.94692294 Ry
     Harris-Foulkes estimate   =    -384.97122944 Ry
     estimated scf accuracy    <       0.04759168 Ry

     iteration #  5     ecut=    12.00 Ry     beta= 0.70
     Davidson diagonalization with overlap
     ethr =  9.15E-05,  avg # of iterations =  2.5

     total cpu time spent up to now is       47.8 secs

     total energy              =    -384.95518741 Ry
     Harris-Foulkes estimate   =    -384.95545308 Ry
     estimated scf accuracy    <       0.00061991 Ry

     iteration #  6     ecut=    12.00 Ry     beta= 0.70
     Davidson diagonalization with overlap
     ethr =  1.19E-06,  avg # of iterations =  3.2

     total cpu time spent up to now is       56.5 secs

     total energy              =    -384.95664670 Ry
     Harris-Foulkes estimate   =    -384.95685531 Ry
     estimated scf accuracy    <       0.00037210 Ry

     iteration #  7     ecut=    12.00 Ry     beta= 0.70
     Davidson diagonalization with overlap
     ethr =  7.16E-07,  avg # of iterations =  3.0

     total cpu time spent up to now is       64.7 secs

     total energy              =    -384.95674443 Ry
     Harris-Foulkes estimate   =    -384.95679845 Ry
     estimated scf accuracy    <       0.00013119 Ry

     iteration #  8     ecut=    12.00 Ry     beta= 0.70
     Davidson diagonalization with overlap
     ethr =  2.52E-07,  avg # of iterations =  2.8

     total cpu time spent up to now is       71.6 secs

     total energy              =    -384.95676655 Ry
     Harris-Foulkes estimate   =    -384.95676742 Ry
     estimated scf accuracy    <       0.00000093 Ry

     iteration #  9     ecut=    12.00 Ry     beta= 0.70
     Davidson diagonalization with overlap
     ethr =  1.78E-09,  avg # of iterations =  3.2

     total cpu time spent up to now is       80.3 secs

     total energy              =    -384.95677728 Ry
     Harris-Foulkes estimate   =    -384.95677756 Ry
     estimated scf accuracy    <       0.00000235 Ry

     iteration # 10     ecut=    12.00 Ry     beta= 0.70
     Davidson diagonalization with overlap
     ethr =  1.78E-09,  avg # of iterations =  1.0

     total cpu time spent up to now is       85.0 secs

     total energy              =    -384.95677664 Ry
     Harris-Foulkes estimate   =    -384.95677729 Ry
     estimated scf accuracy    <       0.00000173 Ry

     iteration # 11     ecut=    12.00 Ry     beta= 0.70
     Davidson diagonalization with overlap
     ethr =  1.78E-09,  avg # of iterations =  3.2

     total cpu time spent up to now is       92.3 secs

     total energy              =    -384.95677679 Ry
     Harris-Foulkes estimate   =    -384.95677683 Ry
     estimated scf accuracy    <       0.00000011 Ry

     iteration # 12     ecut=    12.00 Ry     beta= 0.70
     Davidson diagonalization with overlap
     ethr =  2.09E-10,  avg # of iterations =  3.3

     total cpu time spent up to now is       99.7 secs

     total energy              =    -384.95677680 Ry
     Harris-Foulkes estimate   =    -384.95677681 Ry
     estimated scf accuracy    <          9.2E-09 Ry

     iteration # 13     ecut=    12.00 Ry     beta= 0.70
     Davidson diagonalization with overlap
     ethr =  1.76E-11,  avg # of iterations =  3.1

     total cpu time spent up to now is      107.8 secs

     total energy              =    -384.95677681 Ry
     Harris-Foulkes estimate   =    -384.95677680 Ry
     estimated scf accuracy    <          5.5E-10 Ry

     iteration # 14     ecut=    12.00 Ry     beta= 0.70
     Davidson diagonalization with overlap
     ethr =  1.06E-12,  avg # of iterations =  3.1

     total cpu time spent up to now is      115.2 secs

     total energy              =    -384.95677681 Ry
     Harris-Foulkes estimate   =    -384.95677681 Ry
     estimated scf accuracy    <          2.3E-11 Ry

     iteration # 15     ecut=    12.00 Ry     beta= 0.70
     Davidson diagonalization with overlap
     ethr =  1.00E-13,  avg # of iterations =  2.6

     total cpu time spent up to now is      122.1 secs

     total energy              =    -384.95677681 Ry
     Harris-Foulkes estimate   =    -384.95677681 Ry
     estimated scf accuracy    <          3.8E-12 Ry

     iteration # 16     ecut=    12.00 Ry     beta= 0.70
     Davidson diagonalization with overlap
     ethr =  1.00E-13,  avg # of iterations =  1.2

     total cpu time spent up to now is      127.0 secs

     End of self-consistent calculation

     Number of k-points >= 100: set verbosity='high' to print the bands.

     highest occupied level (ev):    15.5749

!    total energy              =    -384.95677681 Ry
     Harris-Foulkes estimate   =    -384.95677681 Ry
     estimated scf accuracy    <          3.2E-13 Ry

     The total energy is the sum of the following terms:

     one-electron contribution =     -30.95440323 Ry
     hartree contribution      =      54.85349111 Ry
     xc contribution           =    -106.37452871 Ry
     ewald contribution        =    -302.48133598 Ry

     convergence has been achieved in  16 iterations

     Writing output data file SnO2.save
 
     init_run     :      2.41s CPU      2.57s WALL (       1 calls)
     electrons    :    119.60s CPU    124.07s WALL (       1 calls)

     Called by init_run:
     wfcinit      :      2.34s CPU      2.49s WALL (       1 calls)
     potinit      :      0.01s CPU      0.01s WALL (       1 calls)
     hinit0       :      0.05s CPU      0.06s WALL (       1 calls)

     Called by electrons:
     c_bands      :    109.62s CPU    113.69s WALL (      16 calls)
     sum_band     :      9.87s CPU     10.25s WALL (      16 calls)
     v_of_rho     :      0.09s CPU      0.09s WALL (      17 calls)
     mix_rho      :      0.02s CPU      0.02s WALL (      16 calls)

     Called by c_bands:
     init_us_2    :      0.51s CPU      1.02s WALL (    6138 calls)
     cegterg      :    104.23s CPU    107.79s WALL (    2976 calls)

     Called by sum_band:

     Called by *egterg:
     h_psi        :     59.38s CPU     64.69s WALL (   11365 calls)
     g_psi        :      0.13s CPU      0.33s WALL (    8203 calls)
     cdiaghg      :     33.54s CPU     33.36s WALL (   11179 calls)

     Called by h_psi:
     h_psi:pot    :     59.26s CPU     64.47s WALL (   11365 calls)
     h_psi:calbec :      5.38s CPU      4.87s WALL (   11365 calls)
     vloc_psi     :     52.35s CPU     54.06s WALL (   11365 calls)
     add_vuspsi   :      1.52s CPU      5.48s WALL (   11365 calls)

     General routines
     calbec       :      5.38s CPU      4.84s WALL (   11365 calls)
     fft          :      0.03s CPU      0.03s WALL (     171 calls)
     ffts         :      0.00s CPU      0.00s WALL (      16 calls)
     fftw         :     61.19s CPU     58.26s WALL (  518668 calls)
 
     Parallel routines
     fft_scatt_xy :      0.55s CPU      6.61s WALL (  518855 calls)
     fft_scatt_yz :     55.79s CPU     12.02s WALL (  518855 calls)
 
     PWSCF        :  2m 2.55s CPU     2m 8.22s WALL

 
   This run was terminated on:  23:46:56   7Apr2018            

=------------------------------------------------------------------------------=
   JOB DONE.
=------------------------------------------------------------------------------=
