
     Program PWSCF v.6.2.2 starts on 18Apr2018 at 17:34:48 

     This program is part of the open-source Quantum ESPRESSO suite
     for quantum simulation of materials; please cite
         "P. Giannozzi et al., J. Phys.:Condens. Matter 21 395502 (2009);
         "P. Giannozzi et al., J. Phys.:Condens. Matter 29 465901 (2017);
          URL http://www.quantum-espresso.org", 
     in publications or presentations arising from this work. More details at
     http://www.quantum-espresso.org/quote

     Parallel version (MPI), running on     2 processors

     MPI processes distributed on     1 nodes
     R & G space division:  proc/nbgrp/npool/nimage =       2
     Reading input from Conv_etot-ecut.in
Warning: card &IONS ignored
Warning: card / ignored
Warning: card &CELL ignored
Warning: card / ignored

     Current dimensions of program PWSCF are:
     Max number of different atomic species (ntypx) = 10
     Max number of k-points (npk) =  40000
     Max angular momentum in pseudopotentials (lmaxx) =  3

     Subspace diagonalization in iterative solution of the eigenvalue problem:
     a serial algorithm will be used

 
     Parallelization info
     --------------------
     sticks:   dense  smooth     PW     G-vecs:    dense   smooth      PW
     Min         186     186     68                 1785     1785     380
     Max         187     187     69                 1786     1786     381
     Sum         373     373    137                 3571     3571     761
 


     bravais-lattice index     =            6
     lattice parameter (alat)  =       9.1100  a.u.
     unit-cell volume          =     506.5589 (a.u.)^3
     number of atoms/cell      =            6
     number of atomic types    =            2
     number of electrons       =        52.00
     number of Kohn-Sham states=           26
     kinetic-energy cutoff     =      14.0000  Ry
     charge density cutoff     =      56.0000  Ry
     convergence threshold     =      1.0E-12
     mixing beta               =       0.7000
     number of iterations used =            8  plain     mixing
     Exchange-correlation      = PBE ( 1  4  3  4 0 0)

     celldm(1)=   9.110000  celldm(2)=   0.000000  celldm(3)=   0.670000
     celldm(4)=   0.000000  celldm(5)=   0.000000  celldm(6)=   0.000000

     crystal axes: (cart. coord. in units of alat)
               a(1) = (   1.000000   0.000000   0.000000 )  
               a(2) = (   0.000000   1.000000   0.000000 )  
               a(3) = (   0.000000   0.000000   0.670000 )  

     reciprocal axes: (cart. coord. in units 2 pi/alat)
               b(1) = (  1.000000  0.000000  0.000000 )  
               b(2) = (  0.000000  1.000000  0.000000 )  
               b(3) = (  0.000000  0.000000  1.492537 )  


     PseudoPot. # 1 for Sn read from file:
     ../../Pseudo_potentials/Sn_PBE.upf
     MD5 check sum: 78e6386ae56e929f0568ae8bf606a80c
     Pseudo is Norm-conserving + core correction, Zval = 14.0
     Generated using ONCVPSP code by D. R. Hamann
     Using radial grid of 1628 points,  6 beta functions with: 
                l(1) =   0
                l(2) =   0
                l(3) =   1
                l(4) =   1
                l(5) =   2
                l(6) =   2

     PseudoPot. # 2 for O  read from file:
     ../../Pseudo_potentials/O_PBE.upf
     MD5 check sum: 3e3f909f7470e8921608ab6b1f57bbae
     Pseudo is Norm-conserving + core correction, Zval =  6.0
     Generated using ONCVPSP code by D. R. Hamann
     Using radial grid of  936 points,  5 beta functions with: 
                l(1) =   0
                l(2) =   0
                l(3) =   1
                l(4) =   1
                l(5) =   2

     atomic species   valence    mass     pseudopotential
        Sn            14.00   118.71000     Sn( 1.00)
        O              6.00    15.99900     O ( 1.00)

      4 Sym. Ops. (no inversion) found



   Cartesian axes

     site n.     atom                  positions (alat units)
         1           Sn  tau(   1) = (   0.0000000   0.0000000   0.0000000  )
         2           Sn  tau(   2) = (   0.5000000   0.5000000   0.3350000  )
         3           O   tau(   3) = (   0.8060000   0.1930000   0.3350000  )
         4           O   tau(   4) = (   0.1930000   0.8060000   0.3350000  )
         5           O   tau(   5) = (   0.3060000   0.3060000   0.0000000  )
         6           O   tau(   6) = (   0.6930000   0.6930000   0.0000000  )

     number of k points=   301

     Number of k-points >= 100: set verbosity='high' to print them.

     Dense  grid:     3571 G-vectors     FFT dimensions: (  24,  24,  15)

     Estimated max dynamical RAM per process >      31.24 MB

     Estimated total dynamical RAM >      62.48 MB

     Check: negative/imaginary core charge=   -0.005649    0.000000

     Initial potential from superposition of free atoms
     Check: negative starting charge=   -0.054353

     starting charge   51.99690, renormalised to   52.00000

     negative rho (up, down):  5.436E-02 0.000E+00
     Starting wfc are   34 randomized atomic wfcs

     total cpu time spent up to now is        4.1 secs

     Self-consistent Calculation

     iteration #  1     ecut=    14.00 Ry     beta= 0.70
     Davidson diagonalization with overlap
     ethr =  1.00E-02,  avg # of iterations =  3.1

     negative rho (up, down):  1.613E-02 0.000E+00

     total cpu time spent up to now is       16.7 secs

     total energy              =    -388.07685844 Ry
     Harris-Foulkes estimate   =    -409.99763233 Ry
     estimated scf accuracy    <      28.10082086 Ry

     iteration #  2     ecut=    14.00 Ry     beta= 0.70
     Davidson diagonalization with overlap
     ethr =  1.00E-02,  avg # of iterations =  3.2

     negative rho (up, down):  4.760E-03 0.000E+00

     total cpu time spent up to now is       31.3 secs

     total energy              =    -393.25350797 Ry
     Harris-Foulkes estimate   =    -396.44232752 Ry
     estimated scf accuracy    <       5.18681079 Ry

     iteration #  3     ecut=    14.00 Ry     beta= 0.70
     Davidson diagonalization with overlap
     ethr =  9.97E-03,  avg # of iterations =  3.3

     negative rho (up, down):  7.857E-04 0.000E+00

     total cpu time spent up to now is       44.5 secs

     total energy              =    -394.40728651 Ry
     Harris-Foulkes estimate   =    -394.94843848 Ry
     estimated scf accuracy    <       0.96330334 Ry

     iteration #  4     ecut=    14.00 Ry     beta= 0.70
     Davidson diagonalization with overlap
     ethr =  1.85E-03,  avg # of iterations =  2.5

     total cpu time spent up to now is       55.3 secs

     total energy              =    -394.60792587 Ry
     Harris-Foulkes estimate   =    -394.62544887 Ry
     estimated scf accuracy    <       0.03735414 Ry

     iteration #  5     ecut=    14.00 Ry     beta= 0.70
     Davidson diagonalization with overlap
     ethr =  7.18E-05,  avg # of iterations =  2.6

     total cpu time spent up to now is       65.8 secs

     total energy              =    -394.61381005 Ry
     Harris-Foulkes estimate   =    -394.61394784 Ry
     estimated scf accuracy    <       0.00050060 Ry

     iteration #  6     ecut=    14.00 Ry     beta= 0.70
     Davidson diagonalization with overlap
     ethr =  9.63E-07,  avg # of iterations =  3.8

     total cpu time spent up to now is       80.6 secs

     total energy              =    -394.61397298 Ry
     Harris-Foulkes estimate   =    -394.61423013 Ry
     estimated scf accuracy    <       0.00052996 Ry

     iteration #  7     ecut=    14.00 Ry     beta= 0.70
     Davidson diagonalization with overlap
     ethr =  9.63E-07,  avg # of iterations =  3.5

     total cpu time spent up to now is       93.1 secs

     total energy              =    -394.61410308 Ry
     Harris-Foulkes estimate   =    -394.61417725 Ry
     estimated scf accuracy    <       0.00021558 Ry

     iteration #  8     ecut=    14.00 Ry     beta= 0.70
     Davidson diagonalization with overlap
     ethr =  4.15E-07,  avg # of iterations =  3.1

     total cpu time spent up to now is      103.5 secs

     total energy              =    -394.61413311 Ry
     Harris-Foulkes estimate   =    -394.61413384 Ry
     estimated scf accuracy    <       0.00000101 Ry

     iteration #  9     ecut=    14.00 Ry     beta= 0.70
     Davidson diagonalization with overlap
     ethr =  1.94E-09,  avg # of iterations =  4.7

     total cpu time spent up to now is      119.7 secs

     total energy              =    -394.61413401 Ry
     Harris-Foulkes estimate   =    -394.61413407 Ry
     estimated scf accuracy    <       0.00000021 Ry

     iteration # 10     ecut=    14.00 Ry     beta= 0.70
     Davidson diagonalization with overlap
     ethr =  3.96E-10,  avg # of iterations =  2.2

     total cpu time spent up to now is      129.6 secs

     total energy              =    -394.61413404 Ry
     Harris-Foulkes estimate   =    -394.61413403 Ry
     estimated scf accuracy    <       0.00000004 Ry

     iteration # 11     ecut=    14.00 Ry     beta= 0.70
     Davidson diagonalization with overlap
     ethr =  7.02E-11,  avg # of iterations =  3.7

     total cpu time spent up to now is      140.7 secs

     total energy              =    -394.61413405 Ry
     Harris-Foulkes estimate   =    -394.61413405 Ry
     estimated scf accuracy    <          3.1E-09 Ry

     iteration # 12     ecut=    14.00 Ry     beta= 0.70
     Davidson diagonalization with overlap
     ethr =  5.87E-12,  avg # of iterations =  3.9

     total cpu time spent up to now is      153.1 secs

     total energy              =    -394.61413405 Ry
     Harris-Foulkes estimate   =    -394.61413405 Ry
     estimated scf accuracy    <          2.0E-09 Ry

     iteration # 13     ecut=    14.00 Ry     beta= 0.70
     Davidson diagonalization with overlap
     ethr =  3.91E-12,  avg # of iterations =  3.4

     total cpu time spent up to now is      164.2 secs

     total energy              =    -394.61413405 Ry
     Harris-Foulkes estimate   =    -394.61413405 Ry
     estimated scf accuracy    <          1.2E-10 Ry

     iteration # 14     ecut=    14.00 Ry     beta= 0.70
     Davidson diagonalization with overlap
     ethr =  2.37E-13,  avg # of iterations =  3.1

     total cpu time spent up to now is      175.9 secs

     total energy              =    -394.61413405 Ry
     Harris-Foulkes estimate   =    -394.61413405 Ry
     estimated scf accuracy    <          4.8E-12 Ry

     iteration # 15     ecut=    14.00 Ry     beta= 0.70
     Davidson diagonalization with overlap
     ethr =  1.00E-13,  avg # of iterations =  1.0

     total cpu time spent up to now is      183.4 secs

     End of self-consistent calculation

     Number of k-points >= 100: set verbosity='high' to print the bands.

     highest occupied level (ev):    14.1679

!    total energy              =    -394.61413406 Ry
     Harris-Foulkes estimate   =    -394.61413405 Ry
     estimated scf accuracy    <          3.0E-13 Ry

     The total energy is the sum of the following terms:

     one-electron contribution =     -44.85588414 Ry
     hartree contribution      =      61.01665298 Ry
     xc contribution           =    -108.29356689 Ry
     ewald contribution        =    -302.48133601 Ry

     convergence has been achieved in  15 iterations

     Writing output data file SnO2.save
 
     init_run     :      3.63s CPU      3.75s WALL (       1 calls)
     electrons    :    175.77s CPU    179.42s WALL (       1 calls)

     Called by init_run:
     wfcinit      :      3.57s CPU      3.68s WALL (       1 calls)
     potinit      :      0.01s CPU      0.01s WALL (       1 calls)
     hinit0       :      0.05s CPU      0.05s WALL (       1 calls)

     Called by electrons:
     c_bands      :    160.80s CPU    163.97s WALL (      15 calls)
     sum_band     :     14.89s CPU     15.26s WALL (      15 calls)
     v_of_rho     :      0.06s CPU      0.06s WALL (      16 calls)
     mix_rho      :      0.01s CPU      0.01s WALL (      15 calls)

     Called by c_bands:
     init_us_2    :      1.20s CPU      2.44s WALL (    9331 calls)
     cegterg      :    149.45s CPU    151.44s WALL (    4515 calls)

     Called by sum_band:

     Called by *egterg:
     h_psi        :     91.58s CPU     93.05s WALL (   18925 calls)
     g_psi        :      0.48s CPU      1.30s WALL (   14109 calls)
     cdiaghg      :     45.58s CPU     44.96s WALL (   18624 calls)

     Called by h_psi:
     h_psi:pot    :     91.38s CPU     92.60s WALL (   18925 calls)
     h_psi:calbec :      8.66s CPU      6.76s WALL (   18925 calls)
     vloc_psi     :     81.55s CPU     80.10s WALL (   18925 calls)
     add_vuspsi   :      1.14s CPU      5.64s WALL (   18925 calls)

     General routines
     calbec       :      8.65s CPU      6.72s WALL (   18925 calls)
     fft          :      0.03s CPU      0.03s WALL (     161 calls)
     ffts         :      0.00s CPU      0.00s WALL (      15 calls)
     fftw         :     94.84s CPU     86.88s WALL (  789736 calls)
 
     Parallel routines
     fft_scatt_xy :      0.80s CPU      6.90s WALL (  789912 calls)
     fft_scatt_yz :     84.87s CPU     14.28s WALL (  789912 calls)
 
     PWSCF        :  2m59.97s CPU     3m 5.17s WALL

 
   This run was terminated on:  17:37:53  18Apr2018            

=------------------------------------------------------------------------------=
   JOB DONE.
=------------------------------------------------------------------------------=
