
     Program PWSCF v.6.2.2 starts on 18Apr2018 at 17:41:25 

     This program is part of the open-source Quantum ESPRESSO suite
     for quantum simulation of materials; please cite
         "P. Giannozzi et al., J. Phys.:Condens. Matter 21 395502 (2009);
         "P. Giannozzi et al., J. Phys.:Condens. Matter 29 465901 (2017);
          URL http://www.quantum-espresso.org", 
     in publications or presentations arising from this work. More details at
     http://www.quantum-espresso.org/quote

     Parallel version (MPI), running on     2 processors

     MPI processes distributed on     1 nodes
     R & G space division:  proc/nbgrp/npool/nimage =       2
     Reading input from Conv_etot-ecut.in
Warning: card &IONS ignored
Warning: card / ignored
Warning: card &CELL ignored
Warning: card / ignored

     Current dimensions of program PWSCF are:
     Max number of different atomic species (ntypx) = 10
     Max number of k-points (npk) =  40000
     Max angular momentum in pseudopotentials (lmaxx) =  3

     Subspace diagonalization in iterative solution of the eigenvalue problem:
     a serial algorithm will be used

 
     Parallelization info
     --------------------
     sticks:   dense  smooth     PW     G-vecs:    dense   smooth      PW
     Min         240     240     80                 2612     2612     508
     Max         241     241     81                 2613     2613     509
     Sum         481     481    161                 5225     5225    1017
 


     bravais-lattice index     =            6
     lattice parameter (alat)  =       9.1100  a.u.
     unit-cell volume          =     506.5589 (a.u.)^3
     number of atoms/cell      =            6
     number of atomic types    =            2
     number of electrons       =        52.00
     number of Kohn-Sham states=           26
     kinetic-energy cutoff     =      18.0000  Ry
     charge density cutoff     =      72.0000  Ry
     convergence threshold     =      1.0E-12
     mixing beta               =       0.7000
     number of iterations used =            8  plain     mixing
     Exchange-correlation      = PBE ( 1  4  3  4 0 0)

     celldm(1)=   9.110000  celldm(2)=   0.000000  celldm(3)=   0.670000
     celldm(4)=   0.000000  celldm(5)=   0.000000  celldm(6)=   0.000000

     crystal axes: (cart. coord. in units of alat)
               a(1) = (   1.000000   0.000000   0.000000 )  
               a(2) = (   0.000000   1.000000   0.000000 )  
               a(3) = (   0.000000   0.000000   0.670000 )  

     reciprocal axes: (cart. coord. in units 2 pi/alat)
               b(1) = (  1.000000  0.000000  0.000000 )  
               b(2) = (  0.000000  1.000000  0.000000 )  
               b(3) = (  0.000000  0.000000  1.492537 )  


     PseudoPot. # 1 for Sn read from file:
     ../../Pseudo_potentials/Sn_PBE.upf
     MD5 check sum: 78e6386ae56e929f0568ae8bf606a80c
     Pseudo is Norm-conserving + core correction, Zval = 14.0
     Generated using ONCVPSP code by D. R. Hamann
     Using radial grid of 1628 points,  6 beta functions with: 
                l(1) =   0
                l(2) =   0
                l(3) =   1
                l(4) =   1
                l(5) =   2
                l(6) =   2

     PseudoPot. # 2 for O  read from file:
     ../../Pseudo_potentials/O_PBE.upf
     MD5 check sum: 3e3f909f7470e8921608ab6b1f57bbae
     Pseudo is Norm-conserving + core correction, Zval =  6.0
     Generated using ONCVPSP code by D. R. Hamann
     Using radial grid of  936 points,  5 beta functions with: 
                l(1) =   0
                l(2) =   0
                l(3) =   1
                l(4) =   1
                l(5) =   2

     atomic species   valence    mass     pseudopotential
        Sn            14.00   118.71000     Sn( 1.00)
        O              6.00    15.99900     O ( 1.00)

      4 Sym. Ops. (no inversion) found



   Cartesian axes

     site n.     atom                  positions (alat units)
         1           Sn  tau(   1) = (   0.0000000   0.0000000   0.0000000  )
         2           Sn  tau(   2) = (   0.5000000   0.5000000   0.3350000  )
         3           O   tau(   3) = (   0.8060000   0.1930000   0.3350000  )
         4           O   tau(   4) = (   0.1930000   0.8060000   0.3350000  )
         5           O   tau(   5) = (   0.3060000   0.3060000   0.0000000  )
         6           O   tau(   6) = (   0.6930000   0.6930000   0.0000000  )

     number of k points=   301

     Number of k-points >= 100: set verbosity='high' to print them.

     Dense  grid:     5225 G-vectors     FFT dimensions: (  25,  25,  18)

     Estimated max dynamical RAM per process >      44.59 MB

     Estimated total dynamical RAM >      89.18 MB

     Check: negative/imaginary core charge=   -0.004326    0.000000

     Initial potential from superposition of free atoms
     Check: negative starting charge=   -0.019835

     starting charge   51.99690, renormalised to   52.00000

     negative rho (up, down):  1.984E-02 0.000E+00
     Starting wfc are   34 randomized atomic wfcs

     total cpu time spent up to now is        5.1 secs

     Self-consistent Calculation

     iteration #  1     ecut=    18.00 Ry     beta= 0.70
     Davidson diagonalization with overlap
     ethr =  1.00E-02,  avg # of iterations =  2.0

     negative rho (up, down):  5.928E-03 0.000E+00

     total cpu time spent up to now is       19.0 secs

     total energy              =    -408.34716949 Ry
     Harris-Foulkes estimate   =    -418.94976654 Ry
     estimated scf accuracy    <      14.04932356 Ry

     iteration #  2     ecut=    18.00 Ry     beta= 0.70
     Davidson diagonalization with overlap
     ethr =  1.00E-02,  avg # of iterations =  2.8

     negative rho (up, down):  1.827E-03 0.000E+00

     total cpu time spent up to now is       34.4 secs

     total energy              =    -411.02375681 Ry
     Harris-Foulkes estimate   =    -411.59506876 Ry
     estimated scf accuracy    <       0.99136984 Ry

     iteration #  3     ecut=    18.00 Ry     beta= 0.70
     Davidson diagonalization with overlap
     ethr =  1.91E-03,  avg # of iterations =  3.1

     negative rho (up, down):  3.886E-04 0.000E+00

     total cpu time spent up to now is       48.7 secs

     total energy              =    -411.17868124 Ry
     Harris-Foulkes estimate   =    -411.26936177 Ry
     estimated scf accuracy    <       0.16492869 Ry

     iteration #  4     ecut=    18.00 Ry     beta= 0.70
     Davidson diagonalization with overlap
     ethr =  3.17E-04,  avg # of iterations =  3.0

     total cpu time spent up to now is       63.3 secs

     total energy              =    -411.21467621 Ry
     Harris-Foulkes estimate   =    -411.22615215 Ry
     estimated scf accuracy    <       0.02188133 Ry

     iteration #  5     ecut=    18.00 Ry     beta= 0.70
     Davidson diagonalization with overlap
     ethr =  4.21E-05,  avg # of iterations =  2.5

     total cpu time spent up to now is       76.8 secs

     total energy              =    -411.22050813 Ry
     Harris-Foulkes estimate   =    -411.22076918 Ry
     estimated scf accuracy    <       0.00060602 Ry

     iteration #  6     ecut=    18.00 Ry     beta= 0.70
     Davidson diagonalization with overlap
     ethr =  1.17E-06,  avg # of iterations =  4.0

     total cpu time spent up to now is       93.2 secs

     total energy              =    -411.22136462 Ry
     Harris-Foulkes estimate   =    -411.22165368 Ry
     estimated scf accuracy    <       0.00071250 Ry

     iteration #  7     ecut=    18.00 Ry     beta= 0.70
     Davidson diagonalization with overlap
     ethr =  1.17E-06,  avg # of iterations =  3.2

     total cpu time spent up to now is      107.1 secs

     total energy              =    -411.22148814 Ry
     Harris-Foulkes estimate   =    -411.22150124 Ry
     estimated scf accuracy    <       0.00002628 Ry

     iteration #  8     ecut=    18.00 Ry     beta= 0.70
     Davidson diagonalization with overlap
     ethr =  5.05E-08,  avg # of iterations =  3.4

     total cpu time spent up to now is      122.6 secs

     total energy              =    -411.22148917 Ry
     Harris-Foulkes estimate   =    -411.22149751 Ry
     estimated scf accuracy    <       0.00001731 Ry

     iteration #  9     ecut=    18.00 Ry     beta= 0.70
     Davidson diagonalization with overlap
     ethr =  3.33E-08,  avg # of iterations =  3.4

     total cpu time spent up to now is      137.1 secs

     total energy              =    -411.22149331 Ry
     Harris-Foulkes estimate   =    -411.22149502 Ry
     estimated scf accuracy    <       0.00000464 Ry

     iteration # 10     ecut=    18.00 Ry     beta= 0.70
     Davidson diagonalization with overlap
     ethr =  8.92E-09,  avg # of iterations =  3.0

     total cpu time spent up to now is      150.3 secs

     total energy              =    -411.22149405 Ry
     Harris-Foulkes estimate   =    -411.22149406 Ry
     estimated scf accuracy    <       0.00000002 Ry

     iteration # 11     ecut=    18.00 Ry     beta= 0.70
     Davidson diagonalization with overlap
     ethr =  4.01E-11,  avg # of iterations =  3.7

     total cpu time spent up to now is      168.8 secs

     total energy              =    -411.22149407 Ry
     Harris-Foulkes estimate   =    -411.22149407 Ry
     estimated scf accuracy    <          4.7E-09 Ry

     iteration # 12     ecut=    18.00 Ry     beta= 0.70
     Davidson diagonalization with overlap
     ethr =  9.00E-12,  avg # of iterations =  2.9

     total cpu time spent up to now is      182.3 secs

     total energy              =    -411.22149407 Ry
     Harris-Foulkes estimate   =    -411.22149407 Ry
     estimated scf accuracy    <          4.0E-10 Ry

     iteration # 13     ecut=    18.00 Ry     beta= 0.70
     Davidson diagonalization with overlap
     ethr =  7.77E-13,  avg # of iterations =  3.3

     total cpu time spent up to now is      197.2 secs

     total energy              =    -411.22149407 Ry
     Harris-Foulkes estimate   =    -411.22149407 Ry
     estimated scf accuracy    <          4.2E-11 Ry

     iteration # 14     ecut=    18.00 Ry     beta= 0.70
     Davidson diagonalization with overlap
     ethr =  1.00E-13,  avg # of iterations =  2.0

     total cpu time spent up to now is      210.0 secs

     total energy              =    -411.22149407 Ry
     Harris-Foulkes estimate   =    -411.22149407 Ry
     estimated scf accuracy    <          1.1E-11 Ry

     iteration # 15     ecut=    18.00 Ry     beta= 0.70
     Davidson diagonalization with overlap
     ethr =  1.00E-13,  avg # of iterations =  1.8

     total cpu time spent up to now is      220.5 secs

     End of self-consistent calculation

     Number of k-points >= 100: set verbosity='high' to print the bands.

     highest occupied level (ev):    10.9411

!    total energy              =    -411.22149407 Ry
     Harris-Foulkes estimate   =    -411.22149407 Ry
     estimated scf accuracy    <          2.2E-13 Ry

     The total energy is the sum of the following terms:

     one-electron contribution =     -68.54435045 Ry
     hartree contribution      =      71.81602078 Ry
     xc contribution           =    -112.01182859 Ry
     ewald contribution        =    -302.48133581 Ry

     convergence has been achieved in  15 iterations

     Writing output data file SnO2.save
 
     init_run     :      4.59s CPU      4.78s WALL (       1 calls)
     electrons    :    208.79s CPU    215.35s WALL (       1 calls)

     Called by init_run:
     wfcinit      :      4.50s CPU      4.69s WALL (       1 calls)
     potinit      :      0.02s CPU      0.02s WALL (       1 calls)
     hinit0       :      0.06s CPU      0.06s WALL (       1 calls)

     Called by electrons:
     c_bands      :    189.41s CPU    195.13s WALL (      15 calls)
     sum_band     :     19.29s CPU     20.11s WALL (      15 calls)
     v_of_rho     :      0.08s CPU      0.08s WALL (      16 calls)
     mix_rho      :      0.01s CPU      0.02s WALL (      15 calls)

     Called by c_bands:
     init_us_2    :      2.14s CPU      3.54s WALL (    9331 calls)
     cegterg      :    172.27s CPU    177.22s WALL (    4515 calls)

     Called by sum_band:

     Called by *egterg:
     h_psi        :    113.93s CPU    118.64s WALL (   18116 calls)
     g_psi        :      0.98s CPU      1.80s WALL (   13300 calls)
     cdiaghg      :     41.35s CPU     40.63s WALL (   17815 calls)

     Called by h_psi:
     h_psi:pot    :    113.50s CPU    117.99s WALL (   18116 calls)
     h_psi:calbec :      8.79s CPU      8.94s WALL (   18116 calls)
     vloc_psi     :    102.06s CPU    100.86s WALL (   18116 calls)
     add_vuspsi   :      2.63s CPU      8.09s WALL (   18116 calls)

     General routines
     calbec       :      8.78s CPU      8.89s WALL (   18116 calls)
     fft          :      0.05s CPU      0.04s WALL (     161 calls)
     ffts         :      0.01s CPU      0.00s WALL (      15 calls)
     fftw         :    119.27s CPU    110.30s WALL (  771256 calls)
 
     Parallel routines
     fft_scatt_xy :      1.35s CPU      9.48s WALL (  771432 calls)
     fft_scatt_yz :    105.32s CPU     17.32s WALL (  771432 calls)
 
     PWSCF        :  3m33.98s CPU     3m42.48s WALL

 
   This run was terminated on:  17:45: 7  18Apr2018            

=------------------------------------------------------------------------------=
   JOB DONE.
=------------------------------------------------------------------------------=
