
     Program PWSCF v.6.2.2 starts on  7Apr2018 at 23:43: 2 

     This program is part of the open-source Quantum ESPRESSO suite
     for quantum simulation of materials; please cite
         "P. Giannozzi et al., J. Phys.:Condens. Matter 21 395502 (2009);
         "P. Giannozzi et al., J. Phys.:Condens. Matter 29 465901 (2017);
          URL http://www.quantum-espresso.org", 
     in publications or presentations arising from this work. More details at
     http://www.quantum-espresso.org/quote

     Parallel version (MPI), running on     2 processors

     MPI processes distributed on     1 nodes
     R & G space division:  proc/nbgrp/npool/nimage =       2
     Reading input from Conv_etot-ecut.in
Warning: card &IONS ignored
Warning: card / ignored
Warning: card &CELL ignored
Warning: card / ignored

     Current dimensions of program PWSCF are:
     Max number of different atomic species (ntypx) = 10
     Max number of k-points (npk) =  40000
     Max angular momentum in pseudopotentials (lmaxx) =  3

     Subspace diagonalization in iterative solution of the eigenvalue problem:
     a serial algorithm will be used

 
     Parallelization info
     --------------------
     sticks:   dense  smooth     PW     G-vecs:    dense   smooth      PW
     Min         130     130     48                 1064     1064     250
     Max         131     131     49                 1065     1065     253
     Sum         261     261     97                 2129     2129     503
 


     bravais-lattice index     =            6
     lattice parameter (alat)  =       9.1100  a.u.
     unit-cell volume          =     506.5589 (a.u.)^3
     number of atoms/cell      =            6
     number of atomic types    =            2
     number of electrons       =        52.00
     number of Kohn-Sham states=           26
     kinetic-energy cutoff     =      10.0000  Ry
     charge density cutoff     =      40.0000  Ry
     convergence threshold     =      1.0E-12
     mixing beta               =       0.7000
     number of iterations used =            8  plain     mixing
     Exchange-correlation      = PBE ( 1  4  3  4 0 0)

     celldm(1)=   9.110000  celldm(2)=   0.000000  celldm(3)=   0.670000
     celldm(4)=   0.000000  celldm(5)=   0.000000  celldm(6)=   0.000000

     crystal axes: (cart. coord. in units of alat)
               a(1) = (   1.000000   0.000000   0.000000 )  
               a(2) = (   0.000000   1.000000   0.000000 )  
               a(3) = (   0.000000   0.000000   0.670000 )  

     reciprocal axes: (cart. coord. in units 2 pi/alat)
               b(1) = (  1.000000  0.000000  0.000000 )  
               b(2) = (  0.000000  1.000000  0.000000 )  
               b(3) = (  0.000000  0.000000  1.492537 )  


     PseudoPot. # 1 for Sn read from file:
     ../../Pseudo_potentials/Sn_PBE.upf
     MD5 check sum: 78e6386ae56e929f0568ae8bf606a80c
     Pseudo is Norm-conserving + core correction, Zval = 14.0
     Generated using ONCVPSP code by D. R. Hamann
     Using radial grid of 1628 points,  6 beta functions with: 
                l(1) =   0
                l(2) =   0
                l(3) =   1
                l(4) =   1
                l(5) =   2
                l(6) =   2

     PseudoPot. # 2 for O  read from file:
     ../../Pseudo_potentials/O_PBE.upf
     MD5 check sum: 3e3f909f7470e8921608ab6b1f57bbae
     Pseudo is Norm-conserving + core correction, Zval =  6.0
     Generated using ONCVPSP code by D. R. Hamann
     Using radial grid of  936 points,  5 beta functions with: 
                l(1) =   0
                l(2) =   0
                l(3) =   1
                l(4) =   1
                l(5) =   2

     atomic species   valence    mass     pseudopotential
        Sn            14.00   118.71000     Sn( 1.00)
        O              6.00    15.99900     O ( 1.00)

      4 Sym. Ops. (no inversion) found



   Cartesian axes

     site n.     atom                  positions (alat units)
         1           Sn  tau(   1) = (   0.0000000   0.0000000   0.0000000  )
         2           Sn  tau(   2) = (   0.5000000   0.5000000   0.3350000  )
         3           O   tau(   3) = (   0.8060000   0.1930000   0.3350000  )
         4           O   tau(   4) = (   0.1930000   0.8060000   0.3350000  )
         5           O   tau(   5) = (   0.3060000   0.3060000   0.0000000  )
         6           O   tau(   6) = (   0.6930000   0.6930000   0.0000000  )

     number of k points=   186

     Number of k-points >= 100: set verbosity='high' to print them.

     Dense  grid:     2129 G-vectors     FFT dimensions: (  20,  20,  15)

     Estimated max dynamical RAM per process >      13.32 MB

     Estimated total dynamical RAM >      26.65 MB

     Check: negative/imaginary core charge=   -0.007768    0.000000

     Initial potential from superposition of free atoms
     Check: negative starting charge=   -0.102810

     starting charge   51.99690, renormalised to   52.00000

     negative rho (up, down):  1.028E-01 0.000E+00
     Starting wfc are   34 randomized atomic wfcs

     total cpu time spent up to now is        2.2 secs

     Self-consistent Calculation

     iteration #  1     ecut=    10.00 Ry     beta= 0.70
     Davidson diagonalization with overlap
     ethr =  1.00E-02,  avg # of iterations =  3.9

     negative rho (up, down):  4.996E-03 0.000E+00

     total cpu time spent up to now is       10.6 secs

     total energy              =    -364.32804890 Ry
     Harris-Foulkes estimate   =    -400.47170246 Ry
     estimated scf accuracy    <      46.40502772 Ry

     iteration #  2     ecut=    10.00 Ry     beta= 0.70
     Davidson diagonalization with overlap
     ethr =  1.00E-02,  avg # of iterations =  4.0

     total cpu time spent up to now is       20.3 secs

     total energy              =    -371.59476064 Ry
     Harris-Foulkes estimate   =    -378.49517825 Ry
     estimated scf accuracy    <      11.35228895 Ry

     iteration #  3     ecut=    10.00 Ry     beta= 0.70
     Davidson diagonalization with overlap
     ethr =  1.00E-02,  avg # of iterations =  3.9

     total cpu time spent up to now is       28.9 secs

     total energy              =    -373.95175051 Ry
     Harris-Foulkes estimate   =    -374.74274375 Ry
     estimated scf accuracy    <       1.25904765 Ry

     iteration #  4     ecut=    10.00 Ry     beta= 0.70
     Davidson diagonalization with overlap
     ethr =  2.42E-03,  avg # of iterations =  2.2

     total cpu time spent up to now is       34.4 secs

     total energy              =    -374.20113056 Ry
     Harris-Foulkes estimate   =    -374.22985101 Ry
     estimated scf accuracy    <       0.05516126 Ry

     iteration #  5     ecut=    10.00 Ry     beta= 0.70
     Davidson diagonalization with overlap
     ethr =  1.06E-04,  avg # of iterations =  2.2

     total cpu time spent up to now is       39.8 secs

     total energy              =    -374.21084014 Ry
     Harris-Foulkes estimate   =    -374.21138437 Ry
     estimated scf accuracy    <       0.00092376 Ry

     iteration #  6     ecut=    10.00 Ry     beta= 0.70
     Davidson diagonalization with overlap
     ethr =  1.78E-06,  avg # of iterations =  3.5

     total cpu time spent up to now is       47.5 secs

     total energy              =    -374.21178394 Ry
     Harris-Foulkes estimate   =    -374.21215323 Ry
     estimated scf accuracy    <       0.00075392 Ry

     iteration #  7     ecut=    10.00 Ry     beta= 0.70
     Davidson diagonalization with overlap
     ethr =  1.45E-06,  avg # of iterations =  3.1

     total cpu time spent up to now is       54.0 secs

     total energy              =    -374.21196019 Ry
     Harris-Foulkes estimate   =    -374.21200020 Ry
     estimated scf accuracy    <       0.00009164 Ry

     iteration #  8     ecut=    10.00 Ry     beta= 0.70
     Davidson diagonalization with overlap
     ethr =  1.76E-07,  avg # of iterations =  3.0

     total cpu time spent up to now is       60.0 secs

     total energy              =    -374.21197397 Ry
     Harris-Foulkes estimate   =    -374.21198174 Ry
     estimated scf accuracy    <       0.00001373 Ry

     iteration #  9     ecut=    10.00 Ry     beta= 0.70
     Davidson diagonalization with overlap
     ethr =  2.64E-08,  avg # of iterations =  3.1

     total cpu time spent up to now is       66.6 secs

     total energy              =    -374.21197665 Ry
     Harris-Foulkes estimate   =    -374.21197806 Ry
     estimated scf accuracy    <       0.00000155 Ry

     iteration # 10     ecut=    10.00 Ry     beta= 0.70
     Davidson diagonalization with overlap
     ethr =  2.99E-09,  avg # of iterations =  3.0

     total cpu time spent up to now is       72.7 secs

     total energy              =    -374.21197697 Ry
     Harris-Foulkes estimate   =    -374.21197694 Ry
     estimated scf accuracy    <       0.00000003 Ry

     iteration # 11     ecut=    10.00 Ry     beta= 0.70
     Davidson diagonalization with overlap
     ethr =  6.21E-11,  avg # of iterations =  3.3

     total cpu time spent up to now is       79.5 secs

     total energy              =    -374.21197697 Ry
     Harris-Foulkes estimate   =    -374.21197697 Ry
     estimated scf accuracy    <          4.9E-09 Ry

     iteration # 12     ecut=    10.00 Ry     beta= 0.70
     Davidson diagonalization with overlap
     ethr =  9.46E-12,  avg # of iterations =  3.3

     total cpu time spent up to now is       86.4 secs

     total energy              =    -374.21197697 Ry
     Harris-Foulkes estimate   =    -374.21197697 Ry
     estimated scf accuracy    <          4.1E-10 Ry

     iteration # 13     ecut=    10.00 Ry     beta= 0.70
     Davidson diagonalization with overlap
     ethr =  7.89E-13,  avg # of iterations =  3.5

     total cpu time spent up to now is       93.5 secs

     total energy              =    -374.21197697 Ry
     Harris-Foulkes estimate   =    -374.21197697 Ry
     estimated scf accuracy    <          3.8E-11 Ry

     iteration # 14     ecut=    10.00 Ry     beta= 0.70
     Davidson diagonalization with overlap
     ethr =  1.00E-13,  avg # of iterations =  3.2

     total cpu time spent up to now is      100.3 secs

     total energy              =    -374.21197697 Ry
     Harris-Foulkes estimate   =    -374.21197697 Ry
     estimated scf accuracy    <          1.7E-12 Ry

     iteration # 15     ecut=    10.00 Ry     beta= 0.70
     Davidson diagonalization with overlap
     ethr =  1.00E-13,  avg # of iterations =  1.0

     total cpu time spent up to now is      103.8 secs

     End of self-consistent calculation

     Number of k-points >= 100: set verbosity='high' to print the bands.

     highest occupied level (ev):    15.5965

!    total energy              =    -374.21197697 Ry
     Harris-Foulkes estimate   =    -374.21197697 Ry
     estimated scf accuracy    <          1.6E-13 Ry

     The total energy is the sum of the following terms:

     one-electron contribution =     -15.51082678 Ry
     hartree contribution      =      48.25755388 Ry
     xc contribution           =    -104.47736791 Ry
     ewald contribution        =    -302.48133617 Ry

     convergence has been achieved in  15 iterations

     Writing output data file SnO2.save
 
     init_run     :      1.71s CPU      1.80s WALL (       1 calls)
     electrons    :     98.40s CPU    101.63s WALL (       1 calls)

     Called by init_run:
     wfcinit      :      1.65s CPU      1.74s WALL (       1 calls)
     potinit      :      0.01s CPU      0.01s WALL (       1 calls)
     hinit0       :      0.04s CPU      0.05s WALL (       1 calls)

     Called by electrons:
     c_bands      :     92.40s CPU     95.20s WALL (      15 calls)
     sum_band     :      5.93s CPU      6.31s WALL (      15 calls)
     v_of_rho     :      0.06s CPU      0.06s WALL (      16 calls)
     mix_rho      :      0.01s CPU      0.01s WALL (      15 calls)

     Called by c_bands:
     init_us_2    :      0.24s CPU      0.75s WALL (    5766 calls)
     cegterg      :     88.61s CPU     90.79s WALL (    2790 calls)

     Called by sum_band:

     Called by *egterg:
     h_psi        :     41.86s CPU     44.57s WALL (   11570 calls)
     g_psi        :      0.08s CPU      0.27s WALL (    8594 calls)
     cdiaghg      :     38.64s CPU     38.39s WALL (   11384 calls)

     Called by h_psi:
     h_psi:pot    :     41.79s CPU     44.39s WALL (   11570 calls)
     h_psi:calbec :      4.15s CPU      3.73s WALL (   11570 calls)
     vloc_psi     :     36.48s CPU     36.25s WALL (   11570 calls)
     add_vuspsi   :      1.15s CPU      4.35s WALL (   11570 calls)

     General routines
     calbec       :      4.15s CPU      3.70s WALL (   11570 calls)
     fft          :      0.03s CPU      0.02s WALL (     161 calls)
     ffts         :      0.00s CPU      0.00s WALL (      15 calls)
     fftw         :     41.93s CPU     38.20s WALL (  513392 calls)
 
     Parallel routines
     fft_scatt_xy :      0.27s CPU      4.53s WALL (  513568 calls)
     fft_scatt_yz :     39.49s CPU      9.97s WALL (  513568 calls)
 
     PWSCF        :  1m40.69s CPU     1m44.85s WALL

 
   This run was terminated on:  23:44:47   7Apr2018            

=------------------------------------------------------------------------------=
   JOB DONE.
=------------------------------------------------------------------------------=
