
     Program PWSCF v.6.2.2 starts on 21Apr2018 at 18: 2:32 

     This program is part of the open-source Quantum ESPRESSO suite
     for quantum simulation of materials; please cite
         "P. Giannozzi et al., J. Phys.:Condens. Matter 21 395502 (2009);
         "P. Giannozzi et al., J. Phys.:Condens. Matter 29 465901 (2017);
          URL http://www.quantum-espresso.org", 
     in publications or presentations arising from this work. More details at
     http://www.quantum-espresso.org/quote

     Parallel version (MPI), running on     2 processors

     MPI processes distributed on     1 nodes
     R & G space division:  proc/nbgrp/npool/nimage =       2
     Reading input from Conv_etot-ecut.in
Warning: card &IONS ignored
Warning: card / ignored
Warning: card &CELL ignored
Warning: card / ignored

     Current dimensions of program PWSCF are:
     Max number of different atomic species (ntypx) = 10
     Max number of k-points (npk) =  40000
     Max angular momentum in pseudopotentials (lmaxx) =  3

     Subspace diagonalization in iterative solution of the eigenvalue problem:
     a serial algorithm will be used

 
     Parallelization info
     --------------------
     sticks:   dense  smooth     PW     G-vecs:    dense   smooth      PW
     Min         396     396    124                 5618     5618     978
     Max         397     397    125                 5619     5619     979
     Sum         793     793    249                11237    11237    1957
 


     bravais-lattice index     =            6
     lattice parameter (alat)  =       9.1100  a.u.
     unit-cell volume          =     506.5589 (a.u.)^3
     number of atoms/cell      =            6
     number of atomic types    =            2
     number of electrons       =        52.00
     number of Kohn-Sham states=           26
     kinetic-energy cutoff     =      30.0000  Ry
     charge density cutoff     =     120.0000  Ry
     convergence threshold     =      1.0E-12
     mixing beta               =       0.7000
     number of iterations used =            8  plain     mixing
     Exchange-correlation      = PBE ( 1  4  3  4 0 0)

     celldm(1)=   9.110000  celldm(2)=   0.000000  celldm(3)=   0.670000
     celldm(4)=   0.000000  celldm(5)=   0.000000  celldm(6)=   0.000000

     crystal axes: (cart. coord. in units of alat)
               a(1) = (   1.000000   0.000000   0.000000 )  
               a(2) = (   0.000000   1.000000   0.000000 )  
               a(3) = (   0.000000   0.000000   0.670000 )  

     reciprocal axes: (cart. coord. in units 2 pi/alat)
               b(1) = (  1.000000  0.000000  0.000000 )  
               b(2) = (  0.000000  1.000000  0.000000 )  
               b(3) = (  0.000000  0.000000  1.492537 )  


     PseudoPot. # 1 for Sn read from file:
     ../../Pseudo_potentials/Sn_PBE.upf
     MD5 check sum: 78e6386ae56e929f0568ae8bf606a80c
     Pseudo is Norm-conserving + core correction, Zval = 14.0
     Generated using ONCVPSP code by D. R. Hamann
     Using radial grid of 1628 points,  6 beta functions with: 
                l(1) =   0
                l(2) =   0
                l(3) =   1
                l(4) =   1
                l(5) =   2
                l(6) =   2

     PseudoPot. # 2 for O  read from file:
     ../../Pseudo_potentials/O_PBE.upf
     MD5 check sum: 3e3f909f7470e8921608ab6b1f57bbae
     Pseudo is Norm-conserving + core correction, Zval =  6.0
     Generated using ONCVPSP code by D. R. Hamann
     Using radial grid of  936 points,  5 beta functions with: 
                l(1) =   0
                l(2) =   0
                l(3) =   1
                l(4) =   1
                l(5) =   2

     atomic species   valence    mass     pseudopotential
        Sn            14.00   118.71000     Sn( 1.00)
        O              6.00    15.99900     O ( 1.00)

      4 Sym. Ops. (no inversion) found



   Cartesian axes

     site n.     atom                  positions (alat units)
         1           Sn  tau(   1) = (   0.0000000   0.0000000   0.0000000  )
         2           Sn  tau(   2) = (   0.5000000   0.5000000   0.3350000  )
         3           O   tau(   3) = (   0.8060000   0.1930000   0.3350000  )
         4           O   tau(   4) = (   0.1930000   0.8060000   0.3350000  )
         5           O   tau(   5) = (   0.3060000   0.3060000   0.0000000  )
         6           O   tau(   6) = (   0.6930000   0.6930000   0.0000000  )

     number of k points=   301

     Number of k-points >= 100: set verbosity='high' to print them.

     Dense  grid:    11237 G-vectors     FFT dimensions: (  32,  32,  24)

     Estimated max dynamical RAM per process >      93.83 MB

     Estimated total dynamical RAM >     187.67 MB

     Check: negative/imaginary core charge=   -0.001432    0.000000

     Initial potential from superposition of free atoms
     Check: negative starting charge=   -0.003011

     starting charge   51.99690, renormalised to   52.00000

     negative rho (up, down):  3.011E-03 0.000E+00
     Starting wfc are   34 randomized atomic wfcs

     total cpu time spent up to now is       10.3 secs

     Self-consistent Calculation

     iteration #  1     ecut=    30.00 Ry     beta= 0.70
     Davidson diagonalization with overlap
     ethr =  1.00E-02,  avg # of iterations =  2.0

     negative rho (up, down):  8.932E-04 0.000E+00

     total cpu time spent up to now is       39.7 secs

     total energy              =    -437.94699501 Ry
     Harris-Foulkes estimate   =    -439.32117636 Ry
     estimated scf accuracy    <       1.94001291 Ry

     iteration #  2     ecut=    30.00 Ry     beta= 0.70
     Davidson diagonalization with overlap
     ethr =  3.73E-03,  avg # of iterations =  3.0

     negative rho (up, down):  3.981E-04 0.000E+00

     total cpu time spent up to now is       72.4 secs

     total energy              =    -438.29338811 Ry
     Harris-Foulkes estimate   =    -438.58223196 Ry
     estimated scf accuracy    <       0.45661415 Ry

     iteration #  3     ecut=    30.00 Ry     beta= 0.70
     Davidson diagonalization with overlap
     ethr =  8.78E-04,  avg # of iterations =  3.1

     negative rho (up, down):  1.101E-04 0.000E+00

     total cpu time spent up to now is      102.7 secs

     total energy              =    -438.42431896 Ry
     Harris-Foulkes estimate   =    -438.46166972 Ry
     estimated scf accuracy    <       0.08317850 Ry

     iteration #  4     ecut=    30.00 Ry     beta= 0.70
     Davidson diagonalization with overlap
     ethr =  1.60E-04,  avg # of iterations =  2.1

     total cpu time spent up to now is      130.1 secs

     total energy              =    -438.43885270 Ry
     Harris-Foulkes estimate   =    -438.43895970 Ry
     estimated scf accuracy    <       0.00120177 Ry

     iteration #  5     ecut=    30.00 Ry     beta= 0.70
     Davidson diagonalization with overlap
     ethr =  2.31E-06,  avg # of iterations =  3.1

     total cpu time spent up to now is      158.3 secs

     total energy              =    -438.43909380 Ry
     Harris-Foulkes estimate   =    -438.43910668 Ry
     estimated scf accuracy    <       0.00003092 Ry

     iteration #  6     ecut=    30.00 Ry     beta= 0.70
     Davidson diagonalization with overlap
     ethr =  5.95E-08,  avg # of iterations =  2.6

     total cpu time spent up to now is      190.0 secs

     total energy              =    -438.43931688 Ry
     Harris-Foulkes estimate   =    -438.43931871 Ry
     estimated scf accuracy    <       0.00000465 Ry

     iteration #  7     ecut=    30.00 Ry     beta= 0.70
     Davidson diagonalization with overlap
     ethr =  8.95E-09,  avg # of iterations =  2.9

     total cpu time spent up to now is      218.6 secs

     total energy              =    -438.43931727 Ry
     Harris-Foulkes estimate   =    -438.43931762 Ry
     estimated scf accuracy    <       0.00000107 Ry

     iteration #  8     ecut=    30.00 Ry     beta= 0.70
     Davidson diagonalization with overlap
     ethr =  2.07E-09,  avg # of iterations =  2.6

     total cpu time spent up to now is      244.9 secs

     total energy              =    -438.43931721 Ry
     Harris-Foulkes estimate   =    -438.43931738 Ry
     estimated scf accuracy    <       0.00000033 Ry

     iteration #  9     ecut=    30.00 Ry     beta= 0.70
     Davidson diagonalization with overlap
     ethr =  6.32E-10,  avg # of iterations =  2.7

     total cpu time spent up to now is      274.0 secs

     total energy              =    -438.43931726 Ry
     Harris-Foulkes estimate   =    -438.43931726 Ry
     estimated scf accuracy    <       0.00000002 Ry

     iteration # 10     ecut=    30.00 Ry     beta= 0.70
     Davidson diagonalization with overlap
     ethr =  3.50E-11,  avg # of iterations =  2.3

     total cpu time spent up to now is      300.4 secs

     total energy              =    -438.43931726 Ry
     Harris-Foulkes estimate   =    -438.43931726 Ry
     estimated scf accuracy    <          3.1E-09 Ry

     iteration # 11     ecut=    30.00 Ry     beta= 0.70
     Davidson diagonalization with overlap
     ethr =  5.87E-12,  avg # of iterations =  2.9

     total cpu time spent up to now is      329.8 secs

     total energy              =    -438.43931726 Ry
     Harris-Foulkes estimate   =    -438.43931726 Ry
     estimated scf accuracy    <          1.1E-10 Ry

     iteration # 12     ecut=    30.00 Ry     beta= 0.70
     Davidson diagonalization with overlap
     ethr =  2.02E-13,  avg # of iterations =  3.1

     total cpu time spent up to now is      362.1 secs

     total energy              =    -438.43931726 Ry
     Harris-Foulkes estimate   =    -438.43931726 Ry
     estimated scf accuracy    <          1.9E-11 Ry

     iteration # 13     ecut=    30.00 Ry     beta= 0.70
     Davidson diagonalization with overlap
     ethr =  1.00E-13,  avg # of iterations =  2.0

     total cpu time spent up to now is      386.7 secs

     End of self-consistent calculation

     Number of k-points >= 100: set verbosity='high' to print the bands.

     highest occupied level (ev):     9.6226

!    total energy              =    -438.43931726 Ry
     Harris-Foulkes estimate   =    -438.43931726 Ry
     estimated scf accuracy    <          8.5E-13 Ry

     The total energy is the sum of the following terms:

     one-electron contribution =    -108.90834852 Ry
     hartree contribution      =      92.08675573 Ry
     xc contribution           =    -119.13638857 Ry
     ewald contribution        =    -302.48133591 Ry

     convergence has been achieved in  13 iterations

     Writing output data file SnO2.save
 
     init_run     :      9.78s CPU      9.96s WALL (       1 calls)
     electrons    :    364.43s CPU    376.42s WALL (       1 calls)

     Called by init_run:
     wfcinit      :      9.61s CPU      9.79s WALL (       1 calls)
     potinit      :      0.04s CPU      0.04s WALL (       1 calls)
     hinit0       :      0.10s CPU      0.11s WALL (       1 calls)

     Called by electrons:
     c_bands      :    329.35s CPU    340.22s WALL (      13 calls)
     sum_band     :     34.88s CPU     35.99s WALL (      13 calls)
     v_of_rho     :      0.16s CPU      0.16s WALL (      14 calls)
     mix_rho      :      0.04s CPU      0.04s WALL (      13 calls)

     Called by c_bands:
     init_us_2    :      4.91s CPU      6.38s WALL (    8127 calls)
     cegterg      :    293.89s CPU    303.87s WALL (    3913 calls)

     Called by sum_band:

     Called by *egterg:
     h_psi        :    218.13s CPU    227.40s WALL (   14597 calls)
     g_psi        :      2.21s CPU      2.16s WALL (   10383 calls)
     cdiaghg      :     33.61s CPU     32.70s WALL (   14296 calls)

     Called by h_psi:
     h_psi:pot    :    216.89s CPU    225.61s WALL (   14597 calls)
     h_psi:calbec :     22.06s CPU     22.32s WALL (   14597 calls)
     vloc_psi     :    178.72s CPU    181.38s WALL (   14597 calls)
     add_vuspsi   :     16.06s CPU     21.81s WALL (   14597 calls)

     General routines
     calbec       :     22.06s CPU     22.27s WALL (   14597 calls)
     fft          :      0.07s CPU      0.08s WALL (     141 calls)
     ffts         :      0.01s CPU      0.01s WALL (      13 calls)
     fftw         :    205.69s CPU    194.81s WALL (  663278 calls)
 
     Parallel routines
     fft_scatt_xy :      4.21s CPU     17.02s WALL (  663432 calls)
     fft_scatt_yz :    167.00s CPU     53.14s WALL (  663432 calls)
 
     PWSCF        :  6m14.99s CPU     6m30.94s WALL

 
   This run was terminated on:  18: 9: 2  21Apr2018            

=------------------------------------------------------------------------------=
   JOB DONE.
=------------------------------------------------------------------------------=
