
     Program PWSCF v.6.2.2 starts on  8Apr2018 at  0: 9:18 

     This program is part of the open-source Quantum ESPRESSO suite
     for quantum simulation of materials; please cite
         "P. Giannozzi et al., J. Phys.:Condens. Matter 21 395502 (2009);
         "P. Giannozzi et al., J. Phys.:Condens. Matter 29 465901 (2017);
          URL http://www.quantum-espresso.org", 
     in publications or presentations arising from this work. More details at
     http://www.quantum-espresso.org/quote

     Parallel version (MPI), running on     2 processors

     MPI processes distributed on     1 nodes
     R & G space division:  proc/nbgrp/npool/nimage =       2
     Reading input from Conv_etot-ecut.in
Warning: card &IONS ignored
Warning: card / ignored
Warning: card &CELL ignored
Warning: card / ignored

     Current dimensions of program PWSCF are:
     Max number of different atomic species (ntypx) = 10
     Max number of k-points (npk) =  40000
     Max angular momentum in pseudopotentials (lmaxx) =  3

     Subspace diagonalization in iterative solution of the eigenvalue problem:
     a serial algorithm will be used

 
     Parallelization info
     --------------------
     sticks:   dense  smooth     PW     G-vecs:    dense   smooth      PW
     Min         524     524    166                 8640     8640    1480
     Max         525     525    167                 8641     8641    1481
     Sum        1049    1049    333                17281    17281    2961
 


     bravais-lattice index     =            6
     lattice parameter (alat)  =       9.1100  a.u.
     unit-cell volume          =     506.5589 (a.u.)^3
     number of atoms/cell      =            6
     number of atomic types    =            2
     number of electrons       =        52.00
     number of Kohn-Sham states=           26
     kinetic-energy cutoff     =      40.0000  Ry
     charge density cutoff     =     160.0000  Ry
     convergence threshold     =      1.0E-12
     mixing beta               =       0.7000
     number of iterations used =            8  plain     mixing
     Exchange-correlation      = PBE ( 1  4  3  4 0 0)

     celldm(1)=   9.110000  celldm(2)=   0.000000  celldm(3)=   0.670000
     celldm(4)=   0.000000  celldm(5)=   0.000000  celldm(6)=   0.000000

     crystal axes: (cart. coord. in units of alat)
               a(1) = (   1.000000   0.000000   0.000000 )  
               a(2) = (   0.000000   1.000000   0.000000 )  
               a(3) = (   0.000000   0.000000   0.670000 )  

     reciprocal axes: (cart. coord. in units 2 pi/alat)
               b(1) = (  1.000000  0.000000  0.000000 )  
               b(2) = (  0.000000  1.000000  0.000000 )  
               b(3) = (  0.000000  0.000000  1.492537 )  


     PseudoPot. # 1 for Sn read from file:
     ../../Pseudo_potentials/Sn_PBE.upf
     MD5 check sum: 78e6386ae56e929f0568ae8bf606a80c
     Pseudo is Norm-conserving + core correction, Zval = 14.0
     Generated using ONCVPSP code by D. R. Hamann
     Using radial grid of 1628 points,  6 beta functions with: 
                l(1) =   0
                l(2) =   0
                l(3) =   1
                l(4) =   1
                l(5) =   2
                l(6) =   2

     PseudoPot. # 2 for O  read from file:
     ../../Pseudo_potentials/O_PBE.upf
     MD5 check sum: 3e3f909f7470e8921608ab6b1f57bbae
     Pseudo is Norm-conserving + core correction, Zval =  6.0
     Generated using ONCVPSP code by D. R. Hamann
     Using radial grid of  936 points,  5 beta functions with: 
                l(1) =   0
                l(2) =   0
                l(3) =   1
                l(4) =   1
                l(5) =   2

     atomic species   valence    mass     pseudopotential
        Sn            14.00   118.71000     Sn( 1.00)
        O              6.00    15.99900     O ( 1.00)

      4 Sym. Ops. (no inversion) found



   Cartesian axes

     site n.     atom                  positions (alat units)
         1           Sn  tau(   1) = (   0.0000000   0.0000000   0.0000000  )
         2           Sn  tau(   2) = (   0.5000000   0.5000000   0.3350000  )
         3           O   tau(   3) = (   0.8060000   0.1930000   0.3350000  )
         4           O   tau(   4) = (   0.1930000   0.8060000   0.3350000  )
         5           O   tau(   5) = (   0.3060000   0.3060000   0.0000000  )
         6           O   tau(   6) = (   0.6930000   0.6930000   0.0000000  )

     number of k points=   186

     Number of k-points >= 100: set verbosity='high' to print them.

     Dense  grid:    17281 G-vectors     FFT dimensions: (  40,  40,  25)

     Estimated max dynamical RAM per process >      93.92 MB

     Estimated total dynamical RAM >     187.83 MB

     Check: negative/imaginary core charge=   -0.000513    0.000000

     Initial potential from superposition of free atoms

     starting charge   51.99690, renormalised to   52.00000

     negative rho (up, down):  7.658E-05 0.000E+00
     Starting wfc are   34 randomized atomic wfcs

     total cpu time spent up to now is       11.1 secs

     Self-consistent Calculation

     iteration #  1     ecut=    40.00 Ry     beta= 0.70
     Davidson diagonalization with overlap
     ethr =  1.00E-02,  avg # of iterations =  2.0

     negative rho (up, down):  2.028E-05 0.000E+00

     total cpu time spent up to now is       40.3 secs

     total energy              =    -445.04164493 Ry
     Harris-Foulkes estimate   =    -445.89185527 Ry
     estimated scf accuracy    <       1.20989749 Ry

     iteration #  2     ecut=    40.00 Ry     beta= 0.70
     Davidson diagonalization with overlap
     ethr =  2.33E-03,  avg # of iterations =  3.0

     negative rho (up, down):  9.050E-06 0.000E+00

     total cpu time spent up to now is       72.4 secs

     total energy              =    -445.32752346 Ry
     Harris-Foulkes estimate   =    -445.82393678 Ry
     estimated scf accuracy    <       0.96965478 Ry

     iteration #  3     ecut=    40.00 Ry     beta= 0.70
     Davidson diagonalization with overlap
     ethr =  1.86E-03,  avg # of iterations =  3.0

     total cpu time spent up to now is      103.1 secs

     total energy              =    -445.53528511 Ry
     Harris-Foulkes estimate   =    -445.53686847 Ry
     estimated scf accuracy    <       0.00924634 Ry

     iteration #  4     ecut=    40.00 Ry     beta= 0.70
     Davidson diagonalization with overlap
     ethr =  1.78E-05,  avg # of iterations =  2.2

     total cpu time spent up to now is      129.0 secs

     total energy              =    -445.53732120 Ry
     Harris-Foulkes estimate   =    -445.53739306 Ry
     estimated scf accuracy    <       0.00026698 Ry

     iteration #  5     ecut=    40.00 Ry     beta= 0.70
     Davidson diagonalization with overlap
     ethr =  5.13E-07,  avg # of iterations =  3.1

     total cpu time spent up to now is      159.6 secs

     total energy              =    -445.53739117 Ry
     Harris-Foulkes estimate   =    -445.53739596 Ry
     estimated scf accuracy    <       0.00001298 Ry

     iteration #  6     ecut=    40.00 Ry     beta= 0.70
     Davidson diagonalization with overlap
     ethr =  2.50E-08,  avg # of iterations =  3.1

     total cpu time spent up to now is      193.1 secs

     total energy              =    -445.53746012 Ry
     Harris-Foulkes estimate   =    -445.53746198 Ry
     estimated scf accuracy    <       0.00000498 Ry

     iteration #  7     ecut=    40.00 Ry     beta= 0.70
     Davidson diagonalization with overlap
     ethr =  9.58E-09,  avg # of iterations =  3.2

     total cpu time spent up to now is      222.7 secs

     total energy              =    -445.53746128 Ry
     Harris-Foulkes estimate   =    -445.53746144 Ry
     estimated scf accuracy    <       0.00000065 Ry

     iteration #  8     ecut=    40.00 Ry     beta= 0.70
     Davidson diagonalization with overlap
     ethr =  1.26E-09,  avg # of iterations =  2.3

     total cpu time spent up to now is      251.6 secs

     total energy              =    -445.53746134 Ry
     Harris-Foulkes estimate   =    -445.53746136 Ry
     estimated scf accuracy    <       0.00000006 Ry

     iteration #  9     ecut=    40.00 Ry     beta= 0.70
     Davidson diagonalization with overlap
     ethr =  1.07E-10,  avg # of iterations =  3.1

     total cpu time spent up to now is      283.6 secs

     total energy              =    -445.53746135 Ry
     Harris-Foulkes estimate   =    -445.53746135 Ry
     estimated scf accuracy    <       0.00000001 Ry

     iteration # 10     ecut=    40.00 Ry     beta= 0.70
     Davidson diagonalization with overlap
     ethr =  2.34E-11,  avg # of iterations =  3.0

     total cpu time spent up to now is      312.3 secs

     total energy              =    -445.53746135 Ry
     Harris-Foulkes estimate   =    -445.53746135 Ry
     estimated scf accuracy    <          2.4E-09 Ry

     iteration # 11     ecut=    40.00 Ry     beta= 0.70
     Davidson diagonalization with overlap
     ethr =  4.52E-12,  avg # of iterations =  2.9

     total cpu time spent up to now is      339.9 secs

     total energy              =    -445.53746135 Ry
     Harris-Foulkes estimate   =    -445.53746135 Ry
     estimated scf accuracy    <          9.0E-12 Ry

     iteration # 12     ecut=    40.00 Ry     beta= 0.70
     Davidson diagonalization with overlap
     ethr =  1.00E-13,  avg # of iterations =  2.5

     total cpu time spent up to now is      366.7 secs

     total energy              =    -445.53746135 Ry
     Harris-Foulkes estimate   =    -445.53746135 Ry
     estimated scf accuracy    <          1.8E-12 Ry

     iteration # 13     ecut=    40.00 Ry     beta= 0.70
     Davidson diagonalization with overlap
     ethr =  1.00E-13,  avg # of iterations =  1.0

     total cpu time spent up to now is      390.1 secs

     End of self-consistent calculation

     Number of k-points >= 100: set verbosity='high' to print the bands.

     highest occupied level (ev):     9.1798

!    total energy              =    -445.53746135 Ry
     Harris-Foulkes estimate   =    -445.53746135 Ry
     estimated scf accuracy    <          1.4E-13 Ry

     The total energy is the sum of the following terms:

     one-electron contribution =    -120.46817640 Ry
     hartree contribution      =      98.79357813 Ry
     xc contribution           =    -121.38152728 Ry
     ewald contribution        =    -302.48133580 Ry

     convergence has been achieved in  13 iterations

     Writing output data file SnO2.save
 
     init_run     :     10.52s CPU     10.70s WALL (       1 calls)
     electrons    :    372.39s CPU    379.14s WALL (       1 calls)

     Called by init_run:
     wfcinit      :     10.25s CPU     10.42s WALL (       1 calls)
     potinit      :      0.07s CPU      0.07s WALL (       1 calls)
     hinit0       :      0.14s CPU      0.15s WALL (       1 calls)

     Called by electrons:
     c_bands      :    333.08s CPU    339.04s WALL (      13 calls)
     sum_band     :     38.90s CPU     39.61s WALL (      13 calls)
     v_of_rho     :      0.35s CPU      0.35s WALL (      14 calls)
     mix_rho      :      0.08s CPU      0.08s WALL (      13 calls)

     Called by c_bands:
     init_us_2    :      5.19s CPU      5.46s WALL (    5022 calls)
     cegterg      :    304.19s CPU    309.84s WALL (    2418 calls)

     Called by sum_band:

     Called by *egterg:
     h_psi        :    238.37s CPU    243.79s WALL (    9006 calls)
     g_psi        :      1.43s CPU      1.49s WALL (    6402 calls)
     cdiaghg      :     25.63s CPU     24.97s WALL (    8820 calls)

     Called by h_psi:
     h_psi:pot    :    236.99s CPU    242.25s WALL (    9006 calls)
     h_psi:calbec :     25.05s CPU     23.03s WALL (    9006 calls)
     vloc_psi     :    190.97s CPU    194.28s WALL (    9006 calls)
     add_vuspsi   :     20.94s CPU     24.88s WALL (    9006 calls)

     General routines
     calbec       :     25.04s CPU     23.00s WALL (    9006 calls)
     fft          :      0.11s CPU      0.12s WALL (     141 calls)
     ffts         :      0.01s CPU      0.01s WALL (      13 calls)
     fftw         :    215.53s CPU    212.15s WALL (  407962 calls)
 
     Parallel routines
     fft_scatt_xy :     11.79s CPU     22.55s WALL (  408116 calls)
     fft_scatt_yz :    113.58s CPU     35.81s WALL (  408116 calls)
 
     PWSCF        :  6m23.75s CPU     6m33.29s WALL

 
   This run was terminated on:   0:15:51   8Apr2018            

=------------------------------------------------------------------------------=
   JOB DONE.
=------------------------------------------------------------------------------=
