
     Program PWSCF v.6.2.2 starts on 18Apr2018 at 17:14:31 

     This program is part of the open-source Quantum ESPRESSO suite
     for quantum simulation of materials; please cite
         "P. Giannozzi et al., J. Phys.:Condens. Matter 21 395502 (2009);
         "P. Giannozzi et al., J. Phys.:Condens. Matter 29 465901 (2017);
          URL http://www.quantum-espresso.org", 
     in publications or presentations arising from this work. More details at
     http://www.quantum-espresso.org/quote

     Parallel version (MPI), running on     2 processors

     MPI processes distributed on     1 nodes
     R & G space division:  proc/nbgrp/npool/nimage =       2
     Reading input from Conv_etot-ecut.in
Warning: card &IONS ignored
Warning: card / ignored
Warning: card &CELL ignored
Warning: card / ignored

     Current dimensions of program PWSCF are:
     Max number of different atomic species (ntypx) = 10
     Max number of k-points (npk) =  40000
     Max angular momentum in pseudopotentials (lmaxx) =  3

     Subspace diagonalization in iterative solution of the eigenvalue problem:
     a serial algorithm will be used

 
     Parallelization info
     --------------------
     sticks:   dense  smooth     PW     G-vecs:    dense   smooth      PW
     Min         106     106     44                  782      782     191
     Max         107     107     45                  785      785     192
     Sum         213     213     89                 1567     1567     383
 


     bravais-lattice index     =            6
     lattice parameter (alat)  =       9.1100  a.u.
     unit-cell volume          =     506.5589 (a.u.)^3
     number of atoms/cell      =            6
     number of atomic types    =            2
     number of electrons       =        52.00
     number of Kohn-Sham states=           26
     kinetic-energy cutoff     =       8.0000  Ry
     charge density cutoff     =      32.0000  Ry
     convergence threshold     =      1.0E-12
     mixing beta               =       0.7000
     number of iterations used =            8  plain     mixing
     Exchange-correlation      = PBE ( 1  4  3  4 0 0)

     celldm(1)=   9.110000  celldm(2)=   0.000000  celldm(3)=   0.670000
     celldm(4)=   0.000000  celldm(5)=   0.000000  celldm(6)=   0.000000

     crystal axes: (cart. coord. in units of alat)
               a(1) = (   1.000000   0.000000   0.000000 )  
               a(2) = (   0.000000   1.000000   0.000000 )  
               a(3) = (   0.000000   0.000000   0.670000 )  

     reciprocal axes: (cart. coord. in units 2 pi/alat)
               b(1) = (  1.000000  0.000000  0.000000 )  
               b(2) = (  0.000000  1.000000  0.000000 )  
               b(3) = (  0.000000  0.000000  1.492537 )  


     PseudoPot. # 1 for Sn read from file:
     ../../Pseudo_potentials/Sn_PBE.upf
     MD5 check sum: 78e6386ae56e929f0568ae8bf606a80c
     Pseudo is Norm-conserving + core correction, Zval = 14.0
     Generated using ONCVPSP code by D. R. Hamann
     Using radial grid of 1628 points,  6 beta functions with: 
                l(1) =   0
                l(2) =   0
                l(3) =   1
                l(4) =   1
                l(5) =   2
                l(6) =   2

     PseudoPot. # 2 for O  read from file:
     ../../Pseudo_potentials/O_PBE.upf
     MD5 check sum: 3e3f909f7470e8921608ab6b1f57bbae
     Pseudo is Norm-conserving + core correction, Zval =  6.0
     Generated using ONCVPSP code by D. R. Hamann
     Using radial grid of  936 points,  5 beta functions with: 
                l(1) =   0
                l(2) =   0
                l(3) =   1
                l(4) =   1
                l(5) =   2

     atomic species   valence    mass     pseudopotential
        Sn            14.00   118.71000     Sn( 1.00)
        O              6.00    15.99900     O ( 1.00)

      4 Sym. Ops. (no inversion) found



   Cartesian axes

     site n.     atom                  positions (alat units)
         1           Sn  tau(   1) = (   0.0000000   0.0000000   0.0000000  )
         2           Sn  tau(   2) = (   0.5000000   0.5000000   0.3350000  )
         3           O   tau(   3) = (   0.8060000   0.1930000   0.3350000  )
         4           O   tau(   4) = (   0.1930000   0.8060000   0.3350000  )
         5           O   tau(   5) = (   0.3060000   0.3060000   0.0000000  )
         6           O   tau(   6) = (   0.6930000   0.6930000   0.0000000  )

     number of k points=   301

     Number of k-points >= 100: set verbosity='high' to print them.

     Dense  grid:     1567 G-vectors     FFT dimensions: (  18,  18,  12)

     Estimated max dynamical RAM per process >      14.39 MB

     Estimated total dynamical RAM >      28.79 MB

     Check: negative/imaginary core charge=   -0.008936    0.000000

     Initial potential from superposition of free atoms
     Check: negative starting charge=   -0.219827

     starting charge   51.99690, renormalised to   52.00000

     negative rho (up, down):  2.198E-01 0.000E+00
     Starting wfc are   34 randomized atomic wfcs

     total cpu time spent up to now is        2.4 secs

     Self-consistent Calculation

     iteration #  1     ecut=     8.00 Ry     beta= 0.70
     Davidson diagonalization with overlap
     ethr =  1.00E-02,  avg # of iterations =  4.1

     total cpu time spent up to now is       12.4 secs

     total energy              =    -351.41613103 Ry
     Harris-Foulkes estimate   =    -395.90144930 Ry
     estimated scf accuracy    <      57.08281117 Ry

     iteration #  2     ecut=     8.00 Ry     beta= 0.70
     Davidson diagonalization with overlap
     ethr =  1.00E-02,  avg # of iterations =  4.1

     total cpu time spent up to now is       24.0 secs

     total energy              =    -360.23864834 Ry
     Harris-Foulkes estimate   =    -368.08083970 Ry
     estimated scf accuracy    <      12.70697066 Ry

     iteration #  3     ecut=     8.00 Ry     beta= 0.70
     Davidson diagonalization with overlap
     ethr =  1.00E-02,  avg # of iterations =  3.9

     total cpu time spent up to now is       33.8 secs

     total energy              =    -362.70695615 Ry
     Harris-Foulkes estimate   =    -363.49032605 Ry
     estimated scf accuracy    <       1.16805057 Ry

     iteration #  4     ecut=     8.00 Ry     beta= 0.70
     Davidson diagonalization with overlap
     ethr =  2.25E-03,  avg # of iterations =  2.2

     total cpu time spent up to now is       40.1 secs

     total energy              =    -362.92462463 Ry
     Harris-Foulkes estimate   =    -362.94698864 Ry
     estimated scf accuracy    <       0.04238873 Ry

     iteration #  5     ecut=     8.00 Ry     beta= 0.70
     Davidson diagonalization with overlap
     ethr =  8.15E-05,  avg # of iterations =  3.3

     total cpu time spent up to now is       47.9 secs

     total energy              =    -362.93188245 Ry
     Harris-Foulkes estimate   =    -362.93505871 Ry
     estimated scf accuracy    <       0.00455489 Ry

     iteration #  6     ecut=     8.00 Ry     beta= 0.70
     Davidson diagonalization with overlap
     ethr =  8.76E-06,  avg # of iterations =  4.1

     total cpu time spent up to now is       57.7 secs

     total energy              =    -362.93257769 Ry
     Harris-Foulkes estimate   =    -362.93603148 Ry
     estimated scf accuracy    <       0.00941696 Ry

     iteration #  7     ecut=     8.00 Ry     beta= 0.70
     Davidson diagonalization with overlap
     ethr =  8.76E-06,  avg # of iterations =  3.7

     total cpu time spent up to now is       66.2 secs

     total energy              =    -362.93406013 Ry
     Harris-Foulkes estimate   =    -362.93424815 Ry
     estimated scf accuracy    <       0.00039096 Ry

     iteration #  8     ecut=     8.00 Ry     beta= 0.70
     Davidson diagonalization with overlap
     ethr =  7.52E-07,  avg # of iterations =  3.6

     total cpu time spent up to now is       74.5 secs

     total energy              =    -362.93412975 Ry
     Harris-Foulkes estimate   =    -362.93419493 Ry
     estimated scf accuracy    <       0.00014179 Ry

     iteration #  9     ecut=     8.00 Ry     beta= 0.70
     Davidson diagonalization with overlap
     ethr =  2.73E-07,  avg # of iterations =  3.3

     total cpu time spent up to now is       81.6 secs

     total energy              =    -362.93414461 Ry
     Harris-Foulkes estimate   =    -362.93415238 Ry
     estimated scf accuracy    <       0.00000129 Ry

     iteration # 10     ecut=     8.00 Ry     beta= 0.70
     Davidson diagonalization with overlap
     ethr =  2.48E-09,  avg # of iterations =  4.1

     total cpu time spent up to now is       91.6 secs

     total energy              =    -362.93414437 Ry
     Harris-Foulkes estimate   =    -362.93414552 Ry
     estimated scf accuracy    <       0.00000075 Ry

     iteration # 11     ecut=     8.00 Ry     beta= 0.70
     Davidson diagonalization with overlap
     ethr =  1.45E-09,  avg # of iterations =  3.2

     total cpu time spent up to now is       99.2 secs

     total energy              =    -362.93414440 Ry
     Harris-Foulkes estimate   =    -362.93414455 Ry
     estimated scf accuracy    <       0.00000011 Ry

     iteration # 12     ecut=     8.00 Ry     beta= 0.70
     Davidson diagonalization with overlap
     ethr =  2.04E-10,  avg # of iterations =  3.7

     total cpu time spent up to now is      107.2 secs

     total energy              =    -362.93414442 Ry
     Harris-Foulkes estimate   =    -362.93414446 Ry
     estimated scf accuracy    <       0.00000003 Ry

     iteration # 13     ecut=     8.00 Ry     beta= 0.70
     Davidson diagonalization with overlap
     ethr =  5.79E-11,  avg # of iterations =  4.6

     total cpu time spent up to now is      117.8 secs

     total energy              =    -362.93414400 Ry
     Harris-Foulkes estimate   =    -362.93414455 Ry
     estimated scf accuracy    <       0.00000004 Ry

     iteration # 14     ecut=     8.00 Ry     beta= 0.70
     Davidson diagonalization with overlap
     ethr =  5.79E-11,  avg # of iterations =  5.0

     total cpu time spent up to now is      129.3 secs

     total energy              =    -362.93414431 Ry
     Harris-Foulkes estimate   =    -362.93414435 Ry
     estimated scf accuracy    <       0.00000077 Ry

     iteration # 15     ecut=     8.00 Ry     beta= 0.70
     Davidson diagonalization with overlap
     ethr =  5.79E-11,  avg # of iterations =  2.1

     total cpu time spent up to now is      134.3 secs

     total energy              =    -362.93414388 Ry
     Harris-Foulkes estimate   =    -362.93414431 Ry
     estimated scf accuracy    <       0.00000065 Ry

     iteration # 16     ecut=     8.00 Ry     beta= 0.70
     Davidson diagonalization with overlap
     ethr =  5.79E-11,  avg # of iterations =  4.5

     total cpu time spent up to now is      146.6 secs

     total energy              =    -362.93414392 Ry
     Harris-Foulkes estimate   =    -362.93414408 Ry
     estimated scf accuracy    <       0.00000011 Ry

     iteration # 17     ecut=     8.00 Ry     beta= 0.70
     Davidson diagonalization with overlap
     ethr =  5.79E-11,  avg # of iterations =  4.5

     total cpu time spent up to now is      158.6 secs

     total energy              =    -362.93414396 Ry
     Harris-Foulkes estimate   =    -362.93414407 Ry
     estimated scf accuracy    <       0.00000136 Ry

     iteration # 18     ecut=     8.00 Ry     beta= 0.70
     Davidson diagonalization with overlap
     ethr =  5.79E-11,  avg # of iterations =  4.6

     total cpu time spent up to now is      170.9 secs

     total energy              =    -362.93414775 Ry
     Harris-Foulkes estimate   =    -362.93414420 Ry
     estimated scf accuracy    <       0.00000005 Ry

     iteration # 19     ecut=     8.00 Ry     beta= 0.70
     Davidson diagonalization with overlap
     c_bands:  1 eigenvalues not converged
     c_bands:  1 eigenvalues not converged
     c_bands:  1 eigenvalues not converged
     c_bands:  1 eigenvalues not converged
     ethr =  5.79E-11,  avg # of iterations =  6.0

     total cpu time spent up to now is      182.9 secs

     total energy              =    -362.93414304 Ry
     Harris-Foulkes estimate   =    -362.93414883 Ry
     estimated scf accuracy    <       0.00000600 Ry

     iteration # 20     ecut=     8.00 Ry     beta= 0.70
     Davidson diagonalization with overlap
     c_bands:  1 eigenvalues not converged
     c_bands:  1 eigenvalues not converged
     c_bands:  1 eigenvalues not converged
     c_bands:  1 eigenvalues not converged
     ethr =  5.79E-11,  avg # of iterations =  6.2

     total cpu time spent up to now is      194.8 secs

     total energy              =    -362.93414433 Ry
     Harris-Foulkes estimate   =    -362.93414435 Ry
     estimated scf accuracy    <       0.00000020 Ry

     iteration # 21     ecut=     8.00 Ry     beta= 0.70
     Davidson diagonalization with overlap
     ethr =  5.79E-11,  avg # of iterations =  3.5

     total cpu time spent up to now is      201.1 secs

     total energy              =    -362.93414428 Ry
     Harris-Foulkes estimate   =    -362.93414434 Ry
     estimated scf accuracy    <       0.00000011 Ry

     iteration # 22     ecut=     8.00 Ry     beta= 0.70
     Davidson diagonalization with overlap
     ethr =  5.79E-11,  avg # of iterations =  3.8

     total cpu time spent up to now is      209.6 secs

     total energy              =    -362.93414433 Ry
     Harris-Foulkes estimate   =    -362.93414429 Ry
     estimated scf accuracy    <       0.00000002 Ry

     iteration # 23     ecut=     8.00 Ry     beta= 0.70
     Davidson diagonalization with overlap
     ethr =  3.20E-11,  avg # of iterations =  3.7

     total cpu time spent up to now is      217.2 secs

     total energy              =    -362.93414444 Ry
     Harris-Foulkes estimate   =    -362.93414434 Ry
     estimated scf accuracy    <       0.00000002 Ry

     iteration # 24     ecut=     8.00 Ry     beta= 0.70
     Davidson diagonalization with overlap
     ethr =  3.20E-11,  avg # of iterations =  4.9

     total cpu time spent up to now is      227.9 secs

     total energy              =    -362.93414457 Ry
     Harris-Foulkes estimate   =    -362.93414452 Ry
     estimated scf accuracy    <       0.00000004 Ry

     iteration # 25     ecut=     8.00 Ry     beta= 0.70
     Davidson diagonalization with overlap
     ethr =  3.20E-11,  avg # of iterations =  3.5

     total cpu time spent up to now is      234.9 secs

     total energy              =    -362.93414463 Ry
     Harris-Foulkes estimate   =    -362.93414457 Ry
     estimated scf accuracy    <       0.00000005 Ry

     iteration # 26     ecut=     8.00 Ry     beta= 0.70
     Davidson diagonalization with overlap
     ethr =  3.20E-11,  avg # of iterations =  4.0

     total cpu time spent up to now is      242.4 secs

     total energy              =    -362.93414405 Ry
     Harris-Foulkes estimate   =    -362.93414464 Ry
     estimated scf accuracy    <       0.00000006 Ry

     iteration # 27     ecut=     8.00 Ry     beta= 0.70
     Davidson diagonalization with overlap
     ethr =  3.20E-11,  avg # of iterations =  5.1

     total cpu time spent up to now is      254.3 secs

     total energy              =    -362.93414412 Ry
     Harris-Foulkes estimate   =    -362.93414431 Ry
     estimated scf accuracy    <       0.00000002 Ry

     iteration # 28     ecut=     8.00 Ry     beta= 0.70
     Davidson diagonalization with overlap
     ethr =  3.20E-11,  avg # of iterations =  4.8

     total cpu time spent up to now is      264.8 secs

     total energy              =    -362.93414423 Ry
     Harris-Foulkes estimate   =    -362.93414418 Ry
     estimated scf accuracy    <       0.00000002 Ry

     iteration # 29     ecut=     8.00 Ry     beta= 0.70
     Davidson diagonalization with overlap
     ethr =  3.20E-11,  avg # of iterations =  3.5

     total cpu time spent up to now is      272.3 secs

     total energy              =    -362.93414428 Ry
     Harris-Foulkes estimate   =    -362.93414424 Ry
     estimated scf accuracy    <       0.00000002 Ry

     iteration # 30     ecut=     8.00 Ry     beta= 0.70
     Davidson diagonalization with overlap
     ethr =  3.20E-11,  avg # of iterations =  5.0

     total cpu time spent up to now is      283.8 secs

     total energy              =    -362.93414468 Ry
     Harris-Foulkes estimate   =    -362.93414447 Ry
     estimated scf accuracy    <       0.00000003 Ry

     iteration # 31     ecut=     8.00 Ry     beta= 0.70
     Davidson diagonalization with overlap
     ethr =  3.20E-11,  avg # of iterations =  5.4

     total cpu time spent up to now is      296.4 secs

     total energy              =    -362.93414522 Ry
     Harris-Foulkes estimate   =    -362.93414528 Ry
     estimated scf accuracy    <       0.00000021 Ry

     iteration # 32     ecut=     8.00 Ry     beta= 0.70
     Davidson diagonalization with overlap
     ethr =  3.20E-11,  avg # of iterations =  2.1

     total cpu time spent up to now is      301.6 secs

     total energy              =    -362.93414455 Ry
     Harris-Foulkes estimate   =    -362.93414522 Ry
     estimated scf accuracy    <       0.00000020 Ry

     iteration # 33     ecut=     8.00 Ry     beta= 0.70
     Davidson diagonalization with overlap
     ethr =  3.20E-11,  avg # of iterations =  5.3

     total cpu time spent up to now is      313.5 secs

     total energy              =    -362.93414504 Ry
     Harris-Foulkes estimate   =    -362.93414472 Ry
     estimated scf accuracy    <       0.00000007 Ry

     iteration # 34     ecut=     8.00 Ry     beta= 0.70
     Davidson diagonalization with overlap
     ethr =  3.20E-11,  avg # of iterations =  4.6

     total cpu time spent up to now is      323.7 secs

     total energy              =    -362.93414491 Ry
     Harris-Foulkes estimate   =    -362.93414509 Ry
     estimated scf accuracy    <       0.00000006 Ry

     iteration # 35     ecut=     8.00 Ry     beta= 0.70
     Davidson diagonalization with overlap
     ethr =  3.20E-11,  avg # of iterations =  2.0

     total cpu time spent up to now is      329.4 secs

     total energy              =    -362.93414472 Ry
     Harris-Foulkes estimate   =    -362.93414491 Ry
     estimated scf accuracy    <       0.00000011 Ry

     iteration # 36     ecut=     8.00 Ry     beta= 0.70
     Davidson diagonalization with overlap
     ethr =  3.20E-11,  avg # of iterations =  4.1

     total cpu time spent up to now is      338.3 secs

     total energy              =    -362.93414450 Ry
     Harris-Foulkes estimate   =    -362.93414474 Ry
     estimated scf accuracy    <       0.00000008 Ry

     iteration # 37     ecut=     8.00 Ry     beta= 0.70
     Davidson diagonalization with overlap
     ethr =  3.20E-11,  avg # of iterations =  4.8

     total cpu time spent up to now is      348.7 secs

     total energy              =    -362.93414426 Ry
     Harris-Foulkes estimate   =    -362.93414455 Ry
     estimated scf accuracy    <       0.00000004 Ry

     iteration # 38     ecut=     8.00 Ry     beta= 0.70
     Davidson diagonalization with overlap
     ethr =  3.20E-11,  avg # of iterations =  5.1

     total cpu time spent up to now is      359.9 secs

     total energy              =    -362.93414425 Ry
     Harris-Foulkes estimate   =    -362.93414436 Ry
     estimated scf accuracy    <       0.00000002 Ry

     iteration # 39     ecut=     8.00 Ry     beta= 0.70
     Davidson diagonalization with overlap
     ethr =  3.20E-11,  avg # of iterations =  4.2

     total cpu time spent up to now is      369.1 secs

     total energy              =    -362.93414424 Ry
     Harris-Foulkes estimate   =    -362.93414427 Ry
     estimated scf accuracy    <       0.00000002 Ry

     iteration # 40     ecut=     8.00 Ry     beta= 0.70
     Davidson diagonalization with overlap
     ethr =  3.20E-11,  avg # of iterations =  2.3

     total cpu time spent up to now is      374.8 secs

     total energy              =    -362.93414414 Ry
     Harris-Foulkes estimate   =    -362.93414425 Ry
     estimated scf accuracy    <       0.00000002 Ry

     iteration # 41     ecut=     8.00 Ry     beta= 0.70
     Davidson diagonalization with overlap
     ethr =  3.20E-11,  avg # of iterations =  4.2

     total cpu time spent up to now is      384.1 secs

     total energy              =    -362.93414397 Ry
     Harris-Foulkes estimate   =    -362.93414416 Ry
     estimated scf accuracy    <       0.00000002 Ry

     iteration # 42     ecut=     8.00 Ry     beta= 0.70
     Davidson diagonalization with overlap
     ethr =  3.20E-11,  avg # of iterations =  4.5

     total cpu time spent up to now is      394.3 secs

     total energy              =    -362.93414403 Ry
     Harris-Foulkes estimate   =    -362.93414402 Ry
     estimated scf accuracy    <       0.00000005 Ry

     iteration # 43     ecut=     8.00 Ry     beta= 0.70
     Davidson diagonalization with overlap
     ethr =  3.20E-11,  avg # of iterations =  1.7

     total cpu time spent up to now is      398.9 secs

     total energy              =    -362.93414403 Ry
     Harris-Foulkes estimate   =    -362.93414403 Ry
     estimated scf accuracy    <       0.00000004 Ry

     iteration # 44     ecut=     8.00 Ry     beta= 0.70
     Davidson diagonalization with overlap
     ethr =  3.20E-11,  avg # of iterations =  1.0

     total cpu time spent up to now is      403.1 secs

     total energy              =    -362.93414408 Ry
     Harris-Foulkes estimate   =    -362.93414403 Ry
     estimated scf accuracy    <       0.00000004 Ry

     iteration # 45     ecut=     8.00 Ry     beta= 0.70
     Davidson diagonalization with overlap
     ethr =  3.20E-11,  avg # of iterations =  2.9

     total cpu time spent up to now is      409.5 secs

     total energy              =    -362.93414413 Ry
     Harris-Foulkes estimate   =    -362.93414408 Ry
     estimated scf accuracy    <       0.00000003 Ry

     iteration # 46     ecut=     8.00 Ry     beta= 0.70
     Davidson diagonalization with overlap
     ethr =  3.20E-11,  avg # of iterations =  3.7

     total cpu time spent up to now is      417.3 secs

     total energy              =    -362.93414419 Ry
     Harris-Foulkes estimate   =    -362.93414414 Ry
     estimated scf accuracy    <       0.00000003 Ry

     iteration # 47     ecut=     8.00 Ry     beta= 0.70
     Davidson diagonalization with overlap
     ethr =  3.20E-11,  avg # of iterations =  4.9

     total cpu time spent up to now is      428.9 secs

     total energy              =    -362.93414423 Ry
     Harris-Foulkes estimate   =    -362.93414435 Ry
     estimated scf accuracy    <       0.00000002 Ry

     iteration # 48     ecut=     8.00 Ry     beta= 0.70
     Davidson diagonalization with overlap
     c_bands:  1 eigenvalues not converged
     c_bands:  1 eigenvalues not converged
     c_bands:  1 eigenvalues not converged
     c_bands:  1 eigenvalues not converged
     ethr =  3.20E-11,  avg # of iterations =  6.6

     total cpu time spent up to now is      442.0 secs

     total energy              =    -362.93414304 Ry
     Harris-Foulkes estimate   =    -362.93414578 Ry
     estimated scf accuracy    <       0.00000032 Ry

     iteration # 49     ecut=     8.00 Ry     beta= 0.70
     Davidson diagonalization with overlap
     c_bands:  1 eigenvalues not converged
     c_bands:  1 eigenvalues not converged
     c_bands:  1 eigenvalues not converged
     ethr =  3.20E-11,  avg # of iterations =  6.1

     total cpu time spent up to now is      455.2 secs

     total energy              =    -362.93414430 Ry
     Harris-Foulkes estimate   =    -362.93414439 Ry
     estimated scf accuracy    <       0.00000002 Ry

     iteration # 50     ecut=     8.00 Ry     beta= 0.70
     Davidson diagonalization with overlap
     ethr =  3.20E-11,  avg # of iterations =  4.1

     total cpu time spent up to now is      464.0 secs

     total energy              =    -362.93414418 Ry
     Harris-Foulkes estimate   =    -362.93414432 Ry
     estimated scf accuracy    <       0.00000002 Ry

     iteration # 51     ecut=     8.00 Ry     beta= 0.70
     Davidson diagonalization with overlap
     ethr =  3.20E-11,  avg # of iterations =  4.5

     total cpu time spent up to now is      473.8 secs

     total energy              =    -362.93414421 Ry
     Harris-Foulkes estimate   =    -362.93414422 Ry
     estimated scf accuracy    <       0.00000002 Ry

     iteration # 52     ecut=     8.00 Ry     beta= 0.70
     Davidson diagonalization with overlap
     ethr =  3.20E-11,  avg # of iterations =  2.0

     total cpu time spent up to now is      478.8 secs

     total energy              =    -362.93414416 Ry
     Harris-Foulkes estimate   =    -362.93414421 Ry
     estimated scf accuracy    <       0.00000002 Ry

     iteration # 53     ecut=     8.00 Ry     beta= 0.70
     Davidson diagonalization with overlap
     ethr =  3.20E-11,  avg # of iterations =  3.3

     total cpu time spent up to now is      485.6 secs

     total energy              =    -362.93414420 Ry
     Harris-Foulkes estimate   =    -362.93414417 Ry
     estimated scf accuracy    <       0.00000002 Ry

     iteration # 54     ecut=     8.00 Ry     beta= 0.70
     Davidson diagonalization with overlap
     ethr =  3.20E-11,  avg # of iterations =  2.7

     total cpu time spent up to now is      491.7 secs

     total energy              =    -362.93414423 Ry
     Harris-Foulkes estimate   =    -362.93414420 Ry
     estimated scf accuracy    <       0.00000002 Ry

     iteration # 55     ecut=     8.00 Ry     beta= 0.70
     Davidson diagonalization with overlap
     ethr =  3.20E-11,  avg # of iterations =  2.5

     total cpu time spent up to now is      497.4 secs

     total energy              =    -362.93414426 Ry
     Harris-Foulkes estimate   =    -362.93414423 Ry
     estimated scf accuracy    <       0.00000002 Ry

     iteration # 56     ecut=     8.00 Ry     beta= 0.70
     Davidson diagonalization with overlap
     ethr =  3.20E-11,  avg # of iterations =  2.9

     total cpu time spent up to now is      503.7 secs

     total energy              =    -362.93414420 Ry
     Harris-Foulkes estimate   =    -362.93414426 Ry
     estimated scf accuracy    <       0.00000002 Ry

     iteration # 57     ecut=     8.00 Ry     beta= 0.70
     Davidson diagonalization with overlap
     ethr =  3.20E-11,  avg # of iterations =  3.3

     total cpu time spent up to now is      511.0 secs

     total energy              =    -362.93414554 Ry
     Harris-Foulkes estimate   =    -362.93414421 Ry
     estimated scf accuracy    <       0.00000002 Ry

     iteration # 58     ecut=     8.00 Ry     beta= 0.70
     Davidson diagonalization with overlap
     c_bands:  1 eigenvalues not converged
     ethr =  3.20E-11,  avg # of iterations =  4.7

     total cpu time spent up to now is      523.3 secs

     total energy              =    -362.93414409 Ry
     Harris-Foulkes estimate   =    -362.93414561 Ry
     estimated scf accuracy    <       0.00000034 Ry

     iteration # 59     ecut=     8.00 Ry     beta= 0.70
     Davidson diagonalization with overlap
     c_bands:  1 eigenvalues not converged
     c_bands:  1 eigenvalues not converged
     c_bands:  1 eigenvalues not converged
     ethr =  3.20E-11,  avg # of iterations =  6.2

     total cpu time spent up to now is      536.2 secs

     total energy              =    -362.93414466 Ry
     Harris-Foulkes estimate   =    -362.93414472 Ry
     estimated scf accuracy    <       0.00000007 Ry

     iteration # 60     ecut=     8.00 Ry     beta= 0.70
     Davidson diagonalization with overlap
     ethr =  3.20E-11,  avg # of iterations =  3.0

     total cpu time spent up to now is      542.5 secs

     total energy              =    -362.93414519 Ry
     Harris-Foulkes estimate   =    -362.93414466 Ry
     estimated scf accuracy    <       0.00000006 Ry

     iteration # 61     ecut=     8.00 Ry     beta= 0.70
     Davidson diagonalization with overlap
     c_bands:  1 eigenvalues not converged
     ethr =  3.20E-11,  avg # of iterations =  5.5

     total cpu time spent up to now is      555.8 secs

     total energy              =    -362.93414162 Ry
     Harris-Foulkes estimate   =    -362.93414588 Ry
     estimated scf accuracy    <       0.00000040 Ry

     iteration # 62     ecut=     8.00 Ry     beta= 0.70
     Davidson diagonalization with overlap
     c_bands:  1 eigenvalues not converged
     c_bands:  1 eigenvalues not converged
     c_bands:  1 eigenvalues not converged
     c_bands:  1 eigenvalues not converged
     c_bands:  1 eigenvalues not converged
     c_bands:  1 eigenvalues not converged
     ethr =  3.20E-11,  avg # of iterations =  8.0

     total cpu time spent up to now is      569.4 secs

     total energy              =    -362.93414414 Ry
     Harris-Foulkes estimate   =    -362.93414419 Ry
     estimated scf accuracy    <       0.00000002 Ry

     iteration # 63     ecut=     8.00 Ry     beta= 0.70
     Davidson diagonalization with overlap
     ethr =  3.20E-11,  avg # of iterations =  3.5

     total cpu time spent up to now is      576.8 secs

     total energy              =    -362.93414414 Ry
     Harris-Foulkes estimate   =    -362.93414415 Ry
     estimated scf accuracy    <       0.00000002 Ry

     iteration # 64     ecut=     8.00 Ry     beta= 0.70
     Davidson diagonalization with overlap
     ethr =  3.20E-11,  avg # of iterations =  1.0

     total cpu time spent up to now is      581.0 secs

     total energy              =    -362.93414413 Ry
     Harris-Foulkes estimate   =    -362.93414414 Ry
     estimated scf accuracy    <       0.00000003 Ry

     iteration # 65     ecut=     8.00 Ry     beta= 0.70
     Davidson diagonalization with overlap
     ethr =  3.20E-11,  avg # of iterations =  1.1

     total cpu time spent up to now is      585.2 secs

     total energy              =    -362.93414415 Ry
     Harris-Foulkes estimate   =    -362.93414413 Ry
     estimated scf accuracy    <       0.00000003 Ry

     iteration # 66     ecut=     8.00 Ry     beta= 0.70
     Davidson diagonalization with overlap
     ethr =  3.20E-11,  avg # of iterations =  2.0

     total cpu time spent up to now is      590.2 secs

     total energy              =    -362.93414414 Ry
     Harris-Foulkes estimate   =    -362.93414415 Ry
     estimated scf accuracy    <       0.00000002 Ry

     iteration # 67     ecut=     8.00 Ry     beta= 0.70
     Davidson diagonalization with overlap
     ethr =  3.20E-11,  avg # of iterations =  1.0

     total cpu time spent up to now is      594.3 secs

     total energy              =    -362.93414414 Ry
     Harris-Foulkes estimate   =    -362.93414414 Ry
     estimated scf accuracy    <       0.00000002 Ry

     iteration # 68     ecut=     8.00 Ry     beta= 0.70
     Davidson diagonalization with overlap
     ethr =  3.20E-11,  avg # of iterations =  1.0

     total cpu time spent up to now is      598.5 secs

     total energy              =    -362.93414415 Ry
     Harris-Foulkes estimate   =    -362.93414414 Ry
     estimated scf accuracy    <       0.00000002 Ry

     iteration # 69     ecut=     8.00 Ry     beta= 0.70
     Davidson diagonalization with overlap
     ethr =  3.20E-11,  avg # of iterations =  1.0

     total cpu time spent up to now is      602.7 secs

     total energy              =    -362.93414400 Ry
     Harris-Foulkes estimate   =    -362.93414415 Ry
     estimated scf accuracy    <       0.00000002 Ry

     iteration # 70     ecut=     8.00 Ry     beta= 0.70
     Davidson diagonalization with overlap
     ethr =  3.20E-11,  avg # of iterations =  4.2

     total cpu time spent up to now is      612.1 secs

     total energy              =    -362.93414296 Ry
     Harris-Foulkes estimate   =    -362.93414403 Ry
     estimated scf accuracy    <       0.00000004 Ry

     iteration # 71     ecut=     8.00 Ry     beta= 0.70
     Davidson diagonalization with overlap
     c_bands:  1 eigenvalues not converged
     c_bands:  1 eigenvalues not converged
     c_bands:  1 eigenvalues not converged
     c_bands:  1 eigenvalues not converged
     c_bands:  1 eigenvalues not converged
     c_bands:  1 eigenvalues not converged
     ethr =  3.20E-11,  avg # of iterations =  7.7

     total cpu time spent up to now is      625.4 secs

     total energy              =    -362.93414256 Ry
     Harris-Foulkes estimate   =    -362.93414522 Ry
     estimated scf accuracy    <       0.00000019 Ry

     iteration # 72     ecut=     8.00 Ry     beta= 0.70
     Davidson diagonalization with overlap
     c_bands:  1 eigenvalues not converged
     c_bands:  1 eigenvalues not converged
     c_bands:  1 eigenvalues not converged
     c_bands:  1 eigenvalues not converged
     c_bands:  1 eigenvalues not converged
     c_bands:  1 eigenvalues not converged
     ethr =  3.20E-11,  avg # of iterations =  6.8

     total cpu time spent up to now is      638.5 secs

     total energy              =    -362.93414417 Ry
     Harris-Foulkes estimate   =    -362.93414418 Ry
     estimated scf accuracy    <       0.00000002 Ry

     iteration # 73     ecut=     8.00 Ry     beta= 0.70
     Davidson diagonalization with overlap
     ethr =  3.20E-11,  avg # of iterations =  5.1

     total cpu time spent up to now is      650.6 secs

     total energy              =    -362.93414480 Ry
     Harris-Foulkes estimate   =    -362.93414447 Ry
     estimated scf accuracy    <       0.00000003 Ry

     iteration # 74     ecut=     8.00 Ry     beta= 0.70
     Davidson diagonalization with overlap
     ethr =  3.20E-11,  avg # of iterations =  5.0

     total cpu time spent up to now is      662.7 secs

     total energy              =    -362.93414475 Ry
     Harris-Foulkes estimate   =    -362.93414503 Ry
     estimated scf accuracy    <       0.00000004 Ry

     iteration # 75     ecut=     8.00 Ry     beta= 0.70
     Davidson diagonalization with overlap
     c_bands:  1 eigenvalues not converged
     c_bands:  1 eigenvalues not converged
     c_bands:  1 eigenvalues not converged
     c_bands:  1 eigenvalues not converged
     c_bands:  1 eigenvalues not converged
     c_bands:  1 eigenvalues not converged
     ethr =  3.20E-11,  avg # of iterations =  7.4

     total cpu time spent up to now is      676.1 secs

     total energy              =    -362.93414416 Ry
     Harris-Foulkes estimate   =    -362.93414579 Ry
     estimated scf accuracy    <       0.00000043 Ry

     iteration # 76     ecut=     8.00 Ry     beta= 0.70
     Davidson diagonalization with overlap
     c_bands:  1 eigenvalues not converged
     ethr =  3.20E-11,  avg # of iterations =  5.2

     total cpu time spent up to now is      688.9 secs

     total energy              =    -362.93414416 Ry
     Harris-Foulkes estimate   =    -362.93414444 Ry
     estimated scf accuracy    <       0.00000003 Ry

     iteration # 77     ecut=     8.00 Ry     beta= 0.70
     Davidson diagonalization with overlap
     ethr =  3.20E-11,  avg # of iterations =  5.0

     total cpu time spent up to now is      700.2 secs

     total energy              =    -362.93414429 Ry
     Harris-Foulkes estimate   =    -362.93414427 Ry
     estimated scf accuracy    <       0.00000002 Ry

     iteration # 78     ecut=     8.00 Ry     beta= 0.70
     Davidson diagonalization with overlap
     ethr =  3.20E-11,  avg # of iterations =  2.3

     total cpu time spent up to now is      705.9 secs

     total energy              =    -362.93414423 Ry
     Harris-Foulkes estimate   =    -362.93414429 Ry
     estimated scf accuracy    <       0.00000002 Ry

     iteration # 79     ecut=     8.00 Ry     beta= 0.70
     Davidson diagonalization with overlap
     ethr =  3.20E-11,  avg # of iterations =  3.2

     total cpu time spent up to now is      713.1 secs

     total energy              =    -362.93414427 Ry
     Harris-Foulkes estimate   =    -362.93414424 Ry
     estimated scf accuracy    <       0.00000002 Ry

     iteration # 80     ecut=     8.00 Ry     beta= 0.70
     Davidson diagonalization with overlap
     ethr =  3.20E-11,  avg # of iterations =  2.3

     total cpu time spent up to now is      718.8 secs

     total energy              =    -362.93414431 Ry
     Harris-Foulkes estimate   =    -362.93414427 Ry
     estimated scf accuracy    <       0.00000002 Ry

     iteration # 81     ecut=     8.00 Ry     beta= 0.70
     Davidson diagonalization with overlap
     ethr =  3.20E-11,  avg # of iterations =  3.7

     total cpu time spent up to now is      726.7 secs

     total energy              =    -362.93414434 Ry
     Harris-Foulkes estimate   =    -362.93414432 Ry
     estimated scf accuracy    <       0.00000002 Ry

     iteration # 82     ecut=     8.00 Ry     beta= 0.70
     Davidson diagonalization with overlap
     ethr =  3.20E-11,  avg # of iterations =  2.0

     total cpu time spent up to now is      732.0 secs

     total energy              =    -362.93414435 Ry
     Harris-Foulkes estimate   =    -362.93414434 Ry
     estimated scf accuracy    <       0.00000002 Ry

     iteration # 83     ecut=     8.00 Ry     beta= 0.70
     Davidson diagonalization with overlap
     ethr =  3.20E-11,  avg # of iterations =  1.0

     total cpu time spent up to now is      736.1 secs

     total energy              =    -362.93414438 Ry
     Harris-Foulkes estimate   =    -362.93414435 Ry
     estimated scf accuracy    <       0.00000002 Ry

     iteration # 84     ecut=     8.00 Ry     beta= 0.70
     Davidson diagonalization with overlap
     ethr =  3.20E-11,  avg # of iterations =  3.9

     total cpu time spent up to now is      743.8 secs

     total energy              =    -362.93414285 Ry
     Harris-Foulkes estimate   =    -362.93414439 Ry
     estimated scf accuracy    <       0.00000002 Ry

     iteration # 85     ecut=     8.00 Ry     beta= 0.70
     Davidson diagonalization with overlap
     c_bands:  1 eigenvalues not converged
     c_bands:  1 eigenvalues not converged
     c_bands:  1 eigenvalues not converged
     ethr =  3.20E-11,  avg # of iterations =  5.7

     total cpu time spent up to now is      756.1 secs

     total energy              =    -362.93414394 Ry
     Harris-Foulkes estimate   =    -362.93414373 Ry
     estimated scf accuracy    <       0.00000015 Ry

     iteration # 86     ecut=     8.00 Ry     beta= 0.70
     Davidson diagonalization with overlap
     ethr =  3.20E-11,  avg # of iterations =  4.7

     total cpu time spent up to now is      767.1 secs

     total energy              =    -362.93414405 Ry
     Harris-Foulkes estimate   =    -362.93414405 Ry
     estimated scf accuracy    <       0.00000004 Ry

     iteration # 87     ecut=     8.00 Ry     beta= 0.70
     Davidson diagonalization with overlap
     ethr =  3.20E-11,  avg # of iterations =  1.0

     total cpu time spent up to now is      771.2 secs

     total energy              =    -362.93414396 Ry
     Harris-Foulkes estimate   =    -362.93414405 Ry
     estimated scf accuracy    <       0.00000004 Ry

     iteration # 88     ecut=     8.00 Ry     beta= 0.70
     Davidson diagonalization with overlap
     ethr =  3.20E-11,  avg # of iterations =  3.3

     total cpu time spent up to now is      778.6 secs

     total energy              =    -362.93414404 Ry
     Harris-Foulkes estimate   =    -362.93414397 Ry
     estimated scf accuracy    <       0.00000006 Ry

     iteration # 89     ecut=     8.00 Ry     beta= 0.70
     Davidson diagonalization with overlap
     ethr =  3.20E-11,  avg # of iterations =  3.2

     total cpu time spent up to now is      785.8 secs

     total energy              =    -362.93414377 Ry
     Harris-Foulkes estimate   =    -362.93414405 Ry
     estimated scf accuracy    <       0.00000004 Ry

     iteration # 90     ecut=     8.00 Ry     beta= 0.70
     Davidson diagonalization with overlap
     ethr =  3.20E-11,  avg # of iterations =  4.3

     total cpu time spent up to now is      795.8 secs

     total energy              =    -362.93414085 Ry
     Harris-Foulkes estimate   =    -362.93414383 Ry
     estimated scf accuracy    <       0.00000011 Ry

     iteration # 91     ecut=     8.00 Ry     beta= 0.70
     Davidson diagonalization with overlap
     c_bands:  1 eigenvalues not converged
     c_bands:  1 eigenvalues not converged
     c_bands:  1 eigenvalues not converged
     c_bands:  1 eigenvalues not converged
     c_bands:  1 eigenvalues not converged
     c_bands:  1 eigenvalues not converged
     ethr =  3.20E-11,  avg # of iterations =  9.3

     total cpu time spent up to now is      810.1 secs

     total energy              =    -362.93414144 Ry
     Harris-Foulkes estimate   =    -362.93414682 Ry
     estimated scf accuracy    <       0.00000070 Ry

     iteration # 92     ecut=     8.00 Ry     beta= 0.70
     Davidson diagonalization with overlap
     c_bands:  1 eigenvalues not converged
     c_bands:  1 eigenvalues not converged
     c_bands:  1 eigenvalues not converged
     c_bands:  1 eigenvalues not converged
     c_bands:  1 eigenvalues not converged
     c_bands:  1 eigenvalues not converged
     ethr =  3.20E-11,  avg # of iterations =  8.3

     total cpu time spent up to now is      823.9 secs

     total energy              =    -362.93414426 Ry
     Harris-Foulkes estimate   =    -362.93414433 Ry
     estimated scf accuracy    <       0.00000002 Ry

     iteration # 93     ecut=     8.00 Ry     beta= 0.70
     Davidson diagonalization with overlap
     ethr =  3.20E-11,  avg # of iterations =  3.9

     total cpu time spent up to now is      832.3 secs

     total energy              =    -362.93414413 Ry
     Harris-Foulkes estimate   =    -362.93414428 Ry
     estimated scf accuracy    <       0.00000002 Ry

     iteration # 94     ecut=     8.00 Ry     beta= 0.70
     Davidson diagonalization with overlap
     ethr =  3.20E-11,  avg # of iterations =  4.5

     total cpu time spent up to now is      842.1 secs

     total energy              =    -362.93414417 Ry
     Harris-Foulkes estimate   =    -362.93414417 Ry
     estimated scf accuracy    <       0.00000002 Ry

     iteration # 95     ecut=     8.00 Ry     beta= 0.70
     Davidson diagonalization with overlap
     ethr =  3.20E-11,  avg # of iterations =  1.0

     total cpu time spent up to now is      846.3 secs

     total energy              =    -362.93414406 Ry
     Harris-Foulkes estimate   =    -362.93414417 Ry
     estimated scf accuracy    <       0.00000002 Ry

     iteration # 96     ecut=     8.00 Ry     beta= 0.70
     Davidson diagonalization with overlap
     ethr =  3.20E-11,  avg # of iterations =  3.9

     total cpu time spent up to now is      854.9 secs

     total energy              =    -362.93414351 Ry
     Harris-Foulkes estimate   =    -362.93414408 Ry
     estimated scf accuracy    <       0.00000003 Ry

     iteration # 97     ecut=     8.00 Ry     beta= 0.70
     Davidson diagonalization with overlap
     ethr =  3.20E-11,  avg # of iterations =  4.8

     total cpu time spent up to now is      866.6 secs

     total energy              =    -362.93414387 Ry
     Harris-Foulkes estimate   =    -362.93414368 Ry
     estimated scf accuracy    <       0.00000017 Ry

     iteration # 98     ecut=     8.00 Ry     beta= 0.70
     Davidson diagonalization with overlap
     ethr =  3.20E-11,  avg # of iterations =  4.1

     total cpu time spent up to now is      876.1 secs

     total energy              =    -362.93414389 Ry
     Harris-Foulkes estimate   =    -362.93414392 Ry
     estimated scf accuracy    <       0.00000007 Ry

     iteration # 99     ecut=     8.00 Ry     beta= 0.70
     Davidson diagonalization with overlap
     ethr =  3.20E-11,  avg # of iterations =  2.0

     total cpu time spent up to now is      881.2 secs

     total energy              =    -362.93414381 Ry
     Harris-Foulkes estimate   =    -362.93414389 Ry
     estimated scf accuracy    <       0.00000008 Ry

     iteration #100     ecut=     8.00 Ry     beta= 0.70
     Davidson diagonalization with overlap
     ethr =  3.20E-11,  avg # of iterations =  2.8

     total cpu time spent up to now is      887.8 secs

     total energy              =    -362.93414176 Ry
     Harris-Foulkes estimate   =    -362.93414381 Ry
     estimated scf accuracy    <       0.00000011 Ry

     End of self-consistent calculation

     convergence NOT achieved after 100 iterations: stopping

     Writing output data file SnO2.save
 
     init_run     :      1.95s CPU      2.04s WALL (       1 calls)
     electrons    :    861.39s CPU    885.52s WALL (       1 calls)

     Called by init_run:
     wfcinit      :      1.91s CPU      1.99s WALL (       1 calls)
     potinit      :      0.01s CPU      0.01s WALL (       1 calls)
     hinit0       :      0.03s CPU      0.03s WALL (       1 calls)

     Called by electrons:
     c_bands      :    813.02s CPU    834.63s WALL (     100 calls)
     sum_band     :     48.13s CPU     50.50s WALL (     100 calls)
     v_of_rho     :      0.18s CPU      0.18s WALL (     101 calls)
     mix_rho      :      0.05s CPU      0.05s WALL (     100 calls)

     Called by c_bands:
     init_us_2    :      1.74s CPU      7.34s WALL (   60501 calls)
     cegterg      :    785.76s CPU    795.45s WALL (   30100 calls)

     Called by sum_band:

     Called by *egterg:
     h_psi        :    326.73s CPU    331.99s WALL (  148667 calls)
     g_psi        :      0.87s CPU      4.31s WALL (  118266 calls)
     cdiaghg      :    398.44s CPU    395.67s WALL (  148366 calls)

     Called by h_psi:
     h_psi:pot    :    326.32s CPU    330.34s WALL (  148667 calls)
     h_psi:calbec :     25.47s CPU     25.80s WALL (  148667 calls)
     vloc_psi     :    298.46s CPU    282.52s WALL (  148667 calls)
     add_vuspsi   :      2.28s CPU     21.28s WALL (  148667 calls)

     General routines
     calbec       :     25.46s CPU     25.43s WALL (  148667 calls)
     fft          :      0.13s CPU      0.08s WALL (    1012 calls)
     ffts         :      0.01s CPU      0.01s WALL (     100 calls)
     fftw         :    344.55s CPU    305.43s WALL ( 5515016 calls)
     davcio       :      0.00s CPU      0.01s WALL (     319 calls)
 
     Parallel routines
     fft_scatt_xy :      1.25s CPU     25.40s WALL ( 5516128 calls)
     fft_scatt_yz :    329.81s CPU     62.41s WALL ( 5516128 calls)
 
     PWSCF        : 14m23.78s CPU    14m48.38s WALL

 
   This run was terminated on:  17:29:19  18Apr2018            

=------------------------------------------------------------------------------=
   JOB DONE.
=------------------------------------------------------------------------------=
