
     Program PWSCF v.6.2.2 starts on 21Apr2018 at 17:35:19 

     This program is part of the open-source Quantum ESPRESSO suite
     for quantum simulation of materials; please cite
         "P. Giannozzi et al., J. Phys.:Condens. Matter 21 395502 (2009);
         "P. Giannozzi et al., J. Phys.:Condens. Matter 29 465901 (2017);
          URL http://www.quantum-espresso.org", 
     in publications or presentations arising from this work. More details at
     http://www.quantum-espresso.org/quote

     Parallel version (MPI), running on     2 processors

     MPI processes distributed on     1 nodes
     R & G space division:  proc/nbgrp/npool/nimage =       2
     Reading input from Conv_etot-ecut.in
Warning: card &IONS ignored
Warning: card / ignored
Warning: card &CELL ignored
Warning: card / ignored

     Current dimensions of program PWSCF are:
     Max number of different atomic species (ntypx) = 10
     Max number of k-points (npk) =  40000
     Max angular momentum in pseudopotentials (lmaxx) =  3

     Subspace diagonalization in iterative solution of the eigenvalue problem:
     a serial algorithm will be used

 
     Parallelization info
     --------------------
     sticks:   dense  smooth     PW     G-vecs:    dense   smooth      PW
     Min         130     130     48                 1064     1064     250
     Max         131     131     49                 1065     1065     253
     Sum         261     261     97                 2129     2129     503
 


     bravais-lattice index     =            6
     lattice parameter (alat)  =       9.1100  a.u.
     unit-cell volume          =     506.5589 (a.u.)^3
     number of atoms/cell      =            6
     number of atomic types    =            2
     number of electrons       =        52.00
     number of Kohn-Sham states=           26
     kinetic-energy cutoff     =      10.0000  Ry
     charge density cutoff     =      40.0000  Ry
     convergence threshold     =      1.0E-12
     mixing beta               =       0.7000
     number of iterations used =            8  plain     mixing
     Exchange-correlation      = PBE ( 1  4  3  4 0 0)

     celldm(1)=   9.110000  celldm(2)=   0.000000  celldm(3)=   0.670000
     celldm(4)=   0.000000  celldm(5)=   0.000000  celldm(6)=   0.000000

     crystal axes: (cart. coord. in units of alat)
               a(1) = (   1.000000   0.000000   0.000000 )  
               a(2) = (   0.000000   1.000000   0.000000 )  
               a(3) = (   0.000000   0.000000   0.670000 )  

     reciprocal axes: (cart. coord. in units 2 pi/alat)
               b(1) = (  1.000000  0.000000  0.000000 )  
               b(2) = (  0.000000  1.000000  0.000000 )  
               b(3) = (  0.000000  0.000000  1.492537 )  


     PseudoPot. # 1 for Sn read from file:
     ../../Pseudo_potentials/Sn_PBE.upf
     MD5 check sum: 78e6386ae56e929f0568ae8bf606a80c
     Pseudo is Norm-conserving + core correction, Zval = 14.0
     Generated using ONCVPSP code by D. R. Hamann
     Using radial grid of 1628 points,  6 beta functions with: 
                l(1) =   0
                l(2) =   0
                l(3) =   1
                l(4) =   1
                l(5) =   2
                l(6) =   2

     PseudoPot. # 2 for O  read from file:
     ../../Pseudo_potentials/O_PBE.upf
     MD5 check sum: 3e3f909f7470e8921608ab6b1f57bbae
     Pseudo is Norm-conserving + core correction, Zval =  6.0
     Generated using ONCVPSP code by D. R. Hamann
     Using radial grid of  936 points,  5 beta functions with: 
                l(1) =   0
                l(2) =   0
                l(3) =   1
                l(4) =   1
                l(5) =   2

     atomic species   valence    mass     pseudopotential
        Sn            14.00   118.71000     Sn( 1.00)
        O              6.00    15.99900     O ( 1.00)

      4 Sym. Ops. (no inversion) found



   Cartesian axes

     site n.     atom                  positions (alat units)
         1           Sn  tau(   1) = (   0.0000000   0.0000000   0.0000000  )
         2           Sn  tau(   2) = (   0.5000000   0.5000000   0.3350000  )
         3           O   tau(   3) = (   0.8060000   0.1930000   0.3350000  )
         4           O   tau(   4) = (   0.1930000   0.8060000   0.3350000  )
         5           O   tau(   5) = (   0.3060000   0.3060000   0.0000000  )
         6           O   tau(   6) = (   0.6930000   0.6930000   0.0000000  )

     number of k points=   301

     Number of k-points >= 100: set verbosity='high' to print them.

     Dense  grid:     2129 G-vectors     FFT dimensions: (  20,  20,  15)

     Estimated max dynamical RAM per process >      19.48 MB

     Estimated total dynamical RAM >      38.97 MB

     Check: negative/imaginary core charge=   -0.007768    0.000000

     Initial potential from superposition of free atoms
     Check: negative starting charge=   -0.102810

     starting charge   51.99690, renormalised to   52.00000

     negative rho (up, down):  1.028E-01 0.000E+00
     Starting wfc are   34 randomized atomic wfcs

     total cpu time spent up to now is        3.5 secs

     Self-consistent Calculation

     iteration #  1     ecut=    10.00 Ry     beta= 0.70
     Davidson diagonalization with overlap
     ethr =  1.00E-02,  avg # of iterations =  4.0

     negative rho (up, down):  4.996E-03 0.000E+00

     total cpu time spent up to now is       17.1 secs

     total energy              =    -364.33710935 Ry
     Harris-Foulkes estimate   =    -400.46947381 Ry
     estimated scf accuracy    <      46.39456718 Ry

     iteration #  2     ecut=    10.00 Ry     beta= 0.70
     Davidson diagonalization with overlap
     ethr =  1.00E-02,  avg # of iterations =  4.1

     total cpu time spent up to now is       31.8 secs

     total energy              =    -371.58716064 Ry
     Harris-Foulkes estimate   =    -378.47975592 Ry
     estimated scf accuracy    <      11.33734007 Ry

     iteration #  3     ecut=    10.00 Ry     beta= 0.70
     Davidson diagonalization with overlap
     ethr =  1.00E-02,  avg # of iterations =  3.9

     total cpu time spent up to now is       44.6 secs

     total energy              =    -373.94073657 Ry
     Harris-Foulkes estimate   =    -374.72974492 Ry
     estimated scf accuracy    <       1.25518885 Ry

     iteration #  4     ecut=    10.00 Ry     beta= 0.70
     Davidson diagonalization with overlap
     ethr =  2.41E-03,  avg # of iterations =  2.2

     total cpu time spent up to now is       53.2 secs

     total energy              =    -374.18817302 Ry
     Harris-Foulkes estimate   =    -374.21677258 Ry
     estimated scf accuracy    <       0.05482175 Ry

     iteration #  5     ecut=    10.00 Ry     beta= 0.70
     Davidson diagonalization with overlap
     ethr =  1.05E-04,  avg # of iterations =  2.4

     total cpu time spent up to now is       61.8 secs

     total energy              =    -374.20272391 Ry
     Harris-Foulkes estimate   =    -374.20357854 Ry
     estimated scf accuracy    <       0.00136716 Ry

     iteration #  6     ecut=    10.00 Ry     beta= 0.70
     Davidson diagonalization with overlap
     ethr =  2.63E-06,  avg # of iterations =  3.4

     total cpu time spent up to now is       73.6 secs

     total energy              =    -374.20337968 Ry
     Harris-Foulkes estimate   =    -374.20408028 Ry
     estimated scf accuracy    <       0.00156511 Ry

     iteration #  7     ecut=    10.00 Ry     beta= 0.70
     Davidson diagonalization with overlap
     ethr =  2.63E-06,  avg # of iterations =  3.1

     total cpu time spent up to now is       83.1 secs

     total energy              =    -374.20370863 Ry
     Harris-Foulkes estimate   =    -374.20374326 Ry
     estimated scf accuracy    <       0.00007536 Ry

     iteration #  8     ecut=    10.00 Ry     beta= 0.70
     Davidson diagonalization with overlap
     ethr =  1.45E-07,  avg # of iterations =  3.1

     total cpu time spent up to now is       93.3 secs

     total energy              =    -374.20372042 Ry
     Harris-Foulkes estimate   =    -374.20372947 Ry
     estimated scf accuracy    <       0.00001723 Ry

     iteration #  9     ecut=    10.00 Ry     beta= 0.70
     Davidson diagonalization with overlap
     ethr =  3.31E-08,  avg # of iterations =  3.0

     total cpu time spent up to now is      103.0 secs

     total energy              =    -374.20372353 Ry
     Harris-Foulkes estimate   =    -374.20372468 Ry
     estimated scf accuracy    <       0.00000085 Ry

     iteration # 10     ecut=    10.00 Ry     beta= 0.70
     Davidson diagonalization with overlap
     ethr =  1.63E-09,  avg # of iterations =  3.1

     total cpu time spent up to now is      112.9 secs

     total energy              =    -374.20372374 Ry
     Harris-Foulkes estimate   =    -374.20372372 Ry
     estimated scf accuracy    <       0.00000005 Ry

     iteration # 11     ecut=    10.00 Ry     beta= 0.70
     Davidson diagonalization with overlap
     ethr =  9.26E-11,  avg # of iterations =  3.2

     total cpu time spent up to now is      123.0 secs

     total energy              =    -374.20372372 Ry
     Harris-Foulkes estimate   =    -374.20372375 Ry
     estimated scf accuracy    <          6.0E-09 Ry

     iteration # 12     ecut=    10.00 Ry     beta= 0.70
     Davidson diagonalization with overlap
     ethr =  1.15E-11,  avg # of iterations =  3.4

     total cpu time spent up to now is      133.9 secs

     total energy              =    -374.20372368 Ry
     Harris-Foulkes estimate   =    -374.20372372 Ry
     estimated scf accuracy    <          7.4E-10 Ry

     iteration # 13     ecut=    10.00 Ry     beta= 0.70
     Davidson diagonalization with overlap
     ethr =  1.42E-12,  avg # of iterations =  4.2

     total cpu time spent up to now is      147.9 secs

     total energy              =    -374.20372370 Ry
     Harris-Foulkes estimate   =    -374.20372369 Ry
     estimated scf accuracy    <          8.3E-10 Ry

     iteration # 14     ecut=    10.00 Ry     beta= 0.70
     Davidson diagonalization with overlap
     ethr =  1.42E-12,  avg # of iterations =  3.1

     total cpu time spent up to now is      158.2 secs

     total energy              =    -374.20372370 Ry
     Harris-Foulkes estimate   =    -374.20372370 Ry
     estimated scf accuracy    <          1.2E-10 Ry

     iteration # 15     ecut=    10.00 Ry     beta= 0.70
     Davidson diagonalization with overlap
     ethr =  2.40E-13,  avg # of iterations =  3.3

     total cpu time spent up to now is      169.4 secs

     total energy              =    -374.20372371 Ry
     Harris-Foulkes estimate   =    -374.20372370 Ry
     estimated scf accuracy    <          1.2E-11 Ry

     iteration # 16     ecut=    10.00 Ry     beta= 0.70
     Davidson diagonalization with overlap
     ethr =  1.00E-13,  avg # of iterations =  2.8

     total cpu time spent up to now is      178.6 secs

     End of self-consistent calculation

     Number of k-points >= 100: set verbosity='high' to print the bands.

     highest occupied level (ev):    15.5954

!    total energy              =    -374.20372371 Ry
     Harris-Foulkes estimate   =    -374.20372371 Ry
     estimated scf accuracy    <          1.9E-13 Ry

     The total energy is the sum of the following terms:

     one-electron contribution =     -15.49907678 Ry
     hartree contribution      =      48.25245952 Ry
     xc contribution           =    -104.47577028 Ry
     ewald contribution        =    -302.48133617 Ry

     convergence has been achieved in  16 iterations

     Writing output data file SnO2.save
 
     init_run     :      3.01s CPU      3.20s WALL (       1 calls)
     electrons    :    170.83s CPU    175.14s WALL (       1 calls)

     Called by init_run:
     wfcinit      :      2.96s CPU      3.14s WALL (       1 calls)
     potinit      :      0.01s CPU      0.01s WALL (       1 calls)
     hinit0       :      0.04s CPU      0.04s WALL (       1 calls)

     Called by electrons:
     c_bands      :    159.28s CPU    163.18s WALL (      16 calls)
     sum_band     :     11.49s CPU     11.89s WALL (      16 calls)
     v_of_rho     :      0.05s CPU      0.05s WALL (      17 calls)
     mix_rho      :      0.01s CPU      0.01s WALL (      16 calls)

     Called by c_bands:
     init_us_2    :      0.63s CPU      1.52s WALL (    9933 calls)
     cegterg      :    151.76s CPU    154.41s WALL (    4816 calls)

     Called by sum_band:

     Called by *egterg:
     h_psi        :     79.52s CPU     83.00s WALL (   20802 calls)
     g_psi        :      0.21s CPU      0.67s WALL (   15685 calls)
     cdiaghg      :     58.20s CPU     57.35s WALL (   20501 calls)

     Called by h_psi:
     h_psi:pot    :     79.38s CPU     82.65s WALL (   20802 calls)
     h_psi:calbec :      6.67s CPU      6.80s WALL (   20802 calls)
     vloc_psi     :     71.14s CPU     69.79s WALL (   20802 calls)
     add_vuspsi   :      1.54s CPU      5.94s WALL (   20802 calls)

     General routines
     calbec       :      6.66s CPU      6.74s WALL (   20802 calls)
     fft          :      0.03s CPU      0.02s WALL (     171 calls)
     ffts         :      0.00s CPU      0.00s WALL (      16 calls)
     fftw         :     81.49s CPU     73.69s WALL (  917124 calls)
 
     Parallel routines
     fft_scatt_xy :      0.68s CPU      7.06s WALL (  917311 calls)
     fft_scatt_yz :     75.76s CPU     20.32s WALL (  917311 calls)
 
     PWSCF        :  2m54.39s CPU     2m59.98s WALL

 
   This run was terminated on:  17:38:19  21Apr2018            

=------------------------------------------------------------------------------=
   JOB DONE.
=------------------------------------------------------------------------------=
