
     Program PWSCF v.6.2.2 starts on 21Apr2018 at 18:18: 7 

     This program is part of the open-source Quantum ESPRESSO suite
     for quantum simulation of materials; please cite
         "P. Giannozzi et al., J. Phys.:Condens. Matter 21 395502 (2009);
         "P. Giannozzi et al., J. Phys.:Condens. Matter 29 465901 (2017);
          URL http://www.quantum-espresso.org", 
     in publications or presentations arising from this work. More details at
     http://www.quantum-espresso.org/quote

     Parallel version (MPI), running on     2 processors

     MPI processes distributed on     1 nodes
     R & G space division:  proc/nbgrp/npool/nimage =       2
     Reading input from Conv_etot-ecut.in
Warning: card &IONS ignored
Warning: card / ignored
Warning: card &CELL ignored
Warning: card / ignored

     Current dimensions of program PWSCF are:
     Max number of different atomic species (ntypx) = 10
     Max number of k-points (npk) =  40000
     Max angular momentum in pseudopotentials (lmaxx) =  3

     Subspace diagonalization in iterative solution of the eigenvalue problem:
     a serial algorithm will be used

 
     Parallelization info
     --------------------
     sticks:   dense  smooth     PW     G-vecs:    dense   smooth      PW
     Min         524     524    166                 8640     8640    1480
     Max         525     525    167                 8641     8641    1481
     Sum        1049    1049    333                17281    17281    2961
 


     bravais-lattice index     =            6
     lattice parameter (alat)  =       9.1100  a.u.
     unit-cell volume          =     506.5589 (a.u.)^3
     number of atoms/cell      =            6
     number of atomic types    =            2
     number of electrons       =        52.00
     number of Kohn-Sham states=           26
     kinetic-energy cutoff     =      40.0000  Ry
     charge density cutoff     =     160.0000  Ry
     convergence threshold     =      1.0E-12
     mixing beta               =       0.7000
     number of iterations used =            8  plain     mixing
     Exchange-correlation      = PBE ( 1  4  3  4 0 0)

     celldm(1)=   9.110000  celldm(2)=   0.000000  celldm(3)=   0.670000
     celldm(4)=   0.000000  celldm(5)=   0.000000  celldm(6)=   0.000000

     crystal axes: (cart. coord. in units of alat)
               a(1) = (   1.000000   0.000000   0.000000 )  
               a(2) = (   0.000000   1.000000   0.000000 )  
               a(3) = (   0.000000   0.000000   0.670000 )  

     reciprocal axes: (cart. coord. in units 2 pi/alat)
               b(1) = (  1.000000  0.000000  0.000000 )  
               b(2) = (  0.000000  1.000000  0.000000 )  
               b(3) = (  0.000000  0.000000  1.492537 )  


     PseudoPot. # 1 for Sn read from file:
     ../../Pseudo_potentials/Sn_PBE.upf
     MD5 check sum: 78e6386ae56e929f0568ae8bf606a80c
     Pseudo is Norm-conserving + core correction, Zval = 14.0
     Generated using ONCVPSP code by D. R. Hamann
     Using radial grid of 1628 points,  6 beta functions with: 
                l(1) =   0
                l(2) =   0
                l(3) =   1
                l(4) =   1
                l(5) =   2
                l(6) =   2

     PseudoPot. # 2 for O  read from file:
     ../../Pseudo_potentials/O_PBE.upf
     MD5 check sum: 3e3f909f7470e8921608ab6b1f57bbae
     Pseudo is Norm-conserving + core correction, Zval =  6.0
     Generated using ONCVPSP code by D. R. Hamann
     Using radial grid of  936 points,  5 beta functions with: 
                l(1) =   0
                l(2) =   0
                l(3) =   1
                l(4) =   1
                l(5) =   2

     atomic species   valence    mass     pseudopotential
        Sn            14.00   118.71000     Sn( 1.00)
        O              6.00    15.99900     O ( 1.00)

      4 Sym. Ops. (no inversion) found



   Cartesian axes

     site n.     atom                  positions (alat units)
         1           Sn  tau(   1) = (   0.0000000   0.0000000   0.0000000  )
         2           Sn  tau(   2) = (   0.5000000   0.5000000   0.3350000  )
         3           O   tau(   3) = (   0.8060000   0.1930000   0.3350000  )
         4           O   tau(   4) = (   0.1930000   0.8060000   0.3350000  )
         5           O   tau(   5) = (   0.3060000   0.3060000   0.0000000  )
         6           O   tau(   6) = (   0.6930000   0.6930000   0.0000000  )

     number of k points=   301

     Number of k-points >= 100: set verbosity='high' to print them.

     Dense  grid:    17281 G-vectors     FFT dimensions: (  40,  40,  25)

     Estimated max dynamical RAM per process >     143.28 MB

     Estimated total dynamical RAM >     286.56 MB

     Check: negative/imaginary core charge=   -0.000513    0.000000

     Initial potential from superposition of free atoms

     starting charge   51.99690, renormalised to   52.00000

     negative rho (up, down):  7.658E-05 0.000E+00
     Starting wfc are   34 randomized atomic wfcs

     total cpu time spent up to now is       17.7 secs

     Self-consistent Calculation

     iteration #  1     ecut=    40.00 Ry     beta= 0.70
     Davidson diagonalization with overlap
     ethr =  1.00E-02,  avg # of iterations =  2.0

     negative rho (up, down):  2.027E-05 0.000E+00

     total cpu time spent up to now is       65.7 secs

     total energy              =    -445.04042431 Ry
     Harris-Foulkes estimate   =    -445.89042100 Ry
     estimated scf accuracy    <       1.20969109 Ry

     iteration #  2     ecut=    40.00 Ry     beta= 0.70
     Davidson diagonalization with overlap
     ethr =  2.33E-03,  avg # of iterations =  3.0

     negative rho (up, down):  9.036E-06 0.000E+00

     total cpu time spent up to now is      119.8 secs

     total energy              =    -445.32569418 Ry
     Harris-Foulkes estimate   =    -445.82198879 Ry
     estimated scf accuracy    <       0.96933869 Ry

     iteration #  3     ecut=    40.00 Ry     beta= 0.70
     Davidson diagonalization with overlap
     ethr =  1.86E-03,  avg # of iterations =  3.0

     total cpu time spent up to now is      169.2 secs

     total energy              =    -445.53337706 Ry
     Harris-Foulkes estimate   =    -445.53494643 Ry
     estimated scf accuracy    <       0.00920160 Ry

     iteration #  4     ecut=    40.00 Ry     beta= 0.70
     Davidson diagonalization with overlap
     ethr =  1.77E-05,  avg # of iterations =  2.2

     total cpu time spent up to now is      213.7 secs

     total energy              =    -445.53552138 Ry
     Harris-Foulkes estimate   =    -445.53559743 Ry
     estimated scf accuracy    <       0.00027671 Ry

     iteration #  5     ecut=    40.00 Ry     beta= 0.70
     Davidson diagonalization with overlap
     ethr =  5.32E-07,  avg # of iterations =  3.1

     total cpu time spent up to now is      263.8 secs

     total energy              =    -445.53575526 Ry
     Harris-Foulkes estimate   =    -445.53575848 Ry
     estimated scf accuracy    <       0.00001023 Ry

     iteration #  6     ecut=    40.00 Ry     beta= 0.70
     Davidson diagonalization with overlap
     ethr =  1.97E-08,  avg # of iterations =  3.1

     total cpu time spent up to now is      320.5 secs

     total energy              =    -445.53579607 Ry
     Harris-Foulkes estimate   =    -445.53579749 Ry
     estimated scf accuracy    <       0.00000376 Ry

     iteration #  7     ecut=    40.00 Ry     beta= 0.70
     Davidson diagonalization with overlap
     ethr =  7.24E-09,  avg # of iterations =  3.2

     total cpu time spent up to now is      369.8 secs

     total energy              =    -445.53579697 Ry
     Harris-Foulkes estimate   =    -445.53579710 Ry
     estimated scf accuracy    <       0.00000051 Ry

     iteration #  8     ecut=    40.00 Ry     beta= 0.70
     Davidson diagonalization with overlap
     ethr =  9.87E-10,  avg # of iterations =  2.6

     total cpu time spent up to now is      416.8 secs

     total energy              =    -445.53579702 Ry
     Harris-Foulkes estimate   =    -445.53579704 Ry
     estimated scf accuracy    <       0.00000003 Ry

     iteration #  9     ecut=    40.00 Ry     beta= 0.70
     Davidson diagonalization with overlap
     ethr =  6.32E-11,  avg # of iterations =  3.0

     total cpu time spent up to now is      476.2 secs

     total energy              =    -445.53579703 Ry
     Harris-Foulkes estimate   =    -445.53579703 Ry
     estimated scf accuracy    <          6.1E-09 Ry

     iteration # 10     ecut=    40.00 Ry     beta= 0.70
     Davidson diagonalization with overlap
     ethr =  1.17E-11,  avg # of iterations =  3.1

     total cpu time spent up to now is      526.8 secs

     total energy              =    -445.53579703 Ry
     Harris-Foulkes estimate   =    -445.53579703 Ry
     estimated scf accuracy    <          1.4E-09 Ry

     iteration # 11     ecut=    40.00 Ry     beta= 0.70
     Davidson diagonalization with overlap
     ethr =  2.65E-12,  avg # of iterations =  3.0

     total cpu time spent up to now is      575.9 secs

     total energy              =    -445.53579703 Ry
     Harris-Foulkes estimate   =    -445.53579703 Ry
     estimated scf accuracy    <          9.5E-12 Ry

     iteration # 12     ecut=    40.00 Ry     beta= 0.70
     Davidson diagonalization with overlap
     ethr =  1.00E-13,  avg # of iterations =  2.3

     total cpu time spent up to now is      618.2 secs

     total energy              =    -445.53579703 Ry
     Harris-Foulkes estimate   =    -445.53579703 Ry
     estimated scf accuracy    <          1.7E-12 Ry

     iteration # 13     ecut=    40.00 Ry     beta= 0.70
     Davidson diagonalization with overlap
     ethr =  1.00E-13,  avg # of iterations =  1.0

     total cpu time spent up to now is      655.7 secs

     End of self-consistent calculation

     Number of k-points >= 100: set verbosity='high' to print the bands.

     highest occupied level (ev):     9.1795

!    total energy              =    -445.53579703 Ry
     Harris-Foulkes estimate   =    -445.53579703 Ry
     estimated scf accuracy    <          1.5E-13 Ry

     The total energy is the sum of the following terms:

     one-electron contribution =    -120.46547569 Ry
     hartree contribution      =      98.79194879 Ry
     xc contribution           =    -121.38093433 Ry
     ewald contribution        =    -302.48133580 Ry

     convergence has been achieved in  13 iterations

     Writing output data file SnO2.save
 
     init_run     :     17.12s CPU     17.38s WALL (       1 calls)
     electrons    :    628.15s CPU    638.04s WALL (       1 calls)

     Called by init_run:
     wfcinit      :     16.86s CPU     17.10s WALL (       1 calls)
     potinit      :      0.06s CPU      0.06s WALL (       1 calls)
     hinit0       :      0.15s CPU      0.16s WALL (       1 calls)

     Called by electrons:
     c_bands      :    561.83s CPU    570.65s WALL (      13 calls)
     sum_band     :     65.99s CPU     67.05s WALL (      13 calls)
     v_of_rho     :      0.26s CPU      0.27s WALL (      14 calls)
     mix_rho      :      0.07s CPU      0.07s WALL (      13 calls)

     Called by c_bands:
     init_us_2    :      9.78s CPU     10.35s WALL (    8127 calls)
     cegterg      :    507.21s CPU    515.31s WALL (    3913 calls)

     Called by sum_band:

     Called by *egterg:
     h_psi        :    408.59s CPU    416.14s WALL (   14622 calls)
     g_psi        :      3.23s CPU      3.31s WALL (   10408 calls)
     cdiaghg      :     35.23s CPU     34.15s WALL (   14321 calls)

     Called by h_psi:
     h_psi:pot    :    405.79s CPU    412.66s WALL (   14622 calls)
     h_psi:calbec :     37.30s CPU     35.86s WALL (   14622 calls)
     vloc_psi     :    343.27s CPU    345.51s WALL (   14622 calls)
     add_vuspsi   :     25.17s CPU     31.17s WALL (   14622 calls)

     General routines
     calbec       :     37.27s CPU     35.81s WALL (   14622 calls)
     fft          :      0.13s CPU      0.13s WALL (     141 calls)
     ffts         :      0.01s CPU      0.01s WALL (      13 calls)
     fftw         :    387.11s CPU    375.17s WALL (  663516 calls)
 
     Parallel routines
     fft_scatt_xy :     12.60s CPU     27.15s WALL (  663670 calls)
     fft_scatt_yz :    229.16s CPU     68.47s WALL (  663670 calls)
 
     PWSCF        : 10m46.17s CPU    11m 1.08s WALL

 
   This run was terminated on:  18:29: 8  21Apr2018            

=------------------------------------------------------------------------------=
   JOB DONE.
=------------------------------------------------------------------------------=
