
     Program PWSCF v.6.2.2 starts on  7Apr2018 at 23:54:17 

     This program is part of the open-source Quantum ESPRESSO suite
     for quantum simulation of materials; please cite
         "P. Giannozzi et al., J. Phys.:Condens. Matter 21 395502 (2009);
         "P. Giannozzi et al., J. Phys.:Condens. Matter 29 465901 (2017);
          URL http://www.quantum-espresso.org", 
     in publications or presentations arising from this work. More details at
     http://www.quantum-espresso.org/quote

     Parallel version (MPI), running on     2 processors

     MPI processes distributed on     1 nodes
     R & G space division:  proc/nbgrp/npool/nimage =       2
     Reading input from Conv_etot-ecut.in
Warning: card &IONS ignored
Warning: card / ignored
Warning: card &CELL ignored
Warning: card / ignored

     Current dimensions of program PWSCF are:
     Max number of different atomic species (ntypx) = 10
     Max number of k-points (npk) =  40000
     Max angular momentum in pseudopotentials (lmaxx) =  3

     Subspace diagonalization in iterative solution of the eigenvalue problem:
     a serial algorithm will be used

 
     Parallelization info
     --------------------
     sticks:   dense  smooth     PW     G-vecs:    dense   smooth      PW
     Min         258     258     88                 3058     3058     592
     Max         259     259     89                 3059     3059     595
     Sum         517     517    177                 6117     6117    1187
 


     bravais-lattice index     =            6
     lattice parameter (alat)  =       9.1100  a.u.
     unit-cell volume          =     506.5589 (a.u.)^3
     number of atoms/cell      =            6
     number of atomic types    =            2
     number of electrons       =        52.00
     number of Kohn-Sham states=           26
     kinetic-energy cutoff     =      20.0000  Ry
     charge density cutoff     =      80.0000  Ry
     convergence threshold     =      1.0E-12
     mixing beta               =       0.7000
     number of iterations used =            8  plain     mixing
     Exchange-correlation      = PBE ( 1  4  3  4 0 0)

     celldm(1)=   9.110000  celldm(2)=   0.000000  celldm(3)=   0.670000
     celldm(4)=   0.000000  celldm(5)=   0.000000  celldm(6)=   0.000000

     crystal axes: (cart. coord. in units of alat)
               a(1) = (   1.000000   0.000000   0.000000 )  
               a(2) = (   0.000000   1.000000   0.000000 )  
               a(3) = (   0.000000   0.000000   0.670000 )  

     reciprocal axes: (cart. coord. in units 2 pi/alat)
               b(1) = (  1.000000  0.000000  0.000000 )  
               b(2) = (  0.000000  1.000000  0.000000 )  
               b(3) = (  0.000000  0.000000  1.492537 )  


     PseudoPot. # 1 for Sn read from file:
     ../../Pseudo_potentials/Sn_PBE.upf
     MD5 check sum: 78e6386ae56e929f0568ae8bf606a80c
     Pseudo is Norm-conserving + core correction, Zval = 14.0
     Generated using ONCVPSP code by D. R. Hamann
     Using radial grid of 1628 points,  6 beta functions with: 
                l(1) =   0
                l(2) =   0
                l(3) =   1
                l(4) =   1
                l(5) =   2
                l(6) =   2

     PseudoPot. # 2 for O  read from file:
     ../../Pseudo_potentials/O_PBE.upf
     MD5 check sum: 3e3f909f7470e8921608ab6b1f57bbae
     Pseudo is Norm-conserving + core correction, Zval =  6.0
     Generated using ONCVPSP code by D. R. Hamann
     Using radial grid of  936 points,  5 beta functions with: 
                l(1) =   0
                l(2) =   0
                l(3) =   1
                l(4) =   1
                l(5) =   2

     atomic species   valence    mass     pseudopotential
        Sn            14.00   118.71000     Sn( 1.00)
        O              6.00    15.99900     O ( 1.00)

      4 Sym. Ops. (no inversion) found



   Cartesian axes

     site n.     atom                  positions (alat units)
         1           Sn  tau(   1) = (   0.0000000   0.0000000   0.0000000  )
         2           Sn  tau(   2) = (   0.5000000   0.5000000   0.3350000  )
         3           O   tau(   3) = (   0.8060000   0.1930000   0.3350000  )
         4           O   tau(   4) = (   0.1930000   0.8060000   0.3350000  )
         5           O   tau(   5) = (   0.3060000   0.3060000   0.0000000  )
         6           O   tau(   6) = (   0.6930000   0.6930000   0.0000000  )

     number of k points=   186

     Number of k-points >= 100: set verbosity='high' to print them.

     Dense  grid:     6117 G-vectors     FFT dimensions: (  25,  25,  18)

     Estimated max dynamical RAM per process >      34.43 MB

     Estimated total dynamical RAM >      68.86 MB

     Check: negative/imaginary core charge=   -0.003797    0.000000

     Initial potential from superposition of free atoms
     Check: negative starting charge=   -0.016581

     starting charge   51.99690, renormalised to   52.00000

     negative rho (up, down):  1.658E-02 0.000E+00
     Starting wfc are   34 randomized atomic wfcs

     total cpu time spent up to now is        4.0 secs

     Self-consistent Calculation

     iteration #  1     ecut=    20.00 Ry     beta= 0.70
     Davidson diagonalization with overlap
     ethr =  1.00E-02,  avg # of iterations =  2.0

     negative rho (up, down):  4.941E-03 0.000E+00

     total cpu time spent up to now is       14.4 secs

     total energy              =    -416.06401812 Ry
     Harris-Foulkes estimate   =    -423.36975656 Ry
     estimated scf accuracy    <       9.82314406 Ry

     iteration #  2     ecut=    20.00 Ry     beta= 0.70
     Davidson diagonalization with overlap
     ethr =  1.00E-02,  avg # of iterations =  2.1

     negative rho (up, down):  1.392E-03 0.000E+00

     total cpu time spent up to now is       24.7 secs

     total energy              =    -417.83237158 Ry
     Harris-Foulkes estimate   =    -418.11263735 Ry
     estimated scf accuracy    <       0.53019413 Ry

     iteration #  3     ecut=    20.00 Ry     beta= 0.70
     Davidson diagonalization with overlap
     ethr =  1.02E-03,  avg # of iterations =  2.3

     negative rho (up, down):  1.689E-04 0.000E+00

     total cpu time spent up to now is       34.2 secs

     total energy              =    -417.90182106 Ry
     Harris-Foulkes estimate   =    -417.93778107 Ry
     estimated scf accuracy    <       0.07090483 Ry

     iteration #  4     ecut=    20.00 Ry     beta= 0.70
     Davidson diagonalization with overlap
     ethr =  1.36E-04,  avg # of iterations =  2.5

     total cpu time spent up to now is       44.8 secs

     total energy              =    -417.91551106 Ry
     Harris-Foulkes estimate   =    -417.92138893 Ry
     estimated scf accuracy    <       0.01089479 Ry

     iteration #  5     ecut=    20.00 Ry     beta= 0.70
     Davidson diagonalization with overlap
     ethr =  2.10E-05,  avg # of iterations =  3.0

     total cpu time spent up to now is       55.4 secs

     total energy              =    -417.91811093 Ry
     Harris-Foulkes estimate   =    -417.91822341 Ry
     estimated scf accuracy    <       0.00030307 Ry

     iteration #  6     ecut=    20.00 Ry     beta= 0.70
     Davidson diagonalization with overlap
     ethr =  5.83E-07,  avg # of iterations =  3.1

     total cpu time spent up to now is       65.9 secs

     total energy              =    -417.91817042 Ry
     Harris-Foulkes estimate   =    -417.91818116 Ry
     estimated scf accuracy    <       0.00001967 Ry

     iteration #  7     ecut=    20.00 Ry     beta= 0.70
     Davidson diagonalization with overlap
     ethr =  3.78E-08,  avg # of iterations =  3.5

     total cpu time spent up to now is       77.5 secs

     total energy              =    -417.91817478 Ry
     Harris-Foulkes estimate   =    -417.91817986 Ry
     estimated scf accuracy    <       0.00001283 Ry

     iteration #  8     ecut=    20.00 Ry     beta= 0.70
     Davidson diagonalization with overlap
     ethr =  2.47E-08,  avg # of iterations =  3.0

     total cpu time spent up to now is       87.9 secs

     total energy              =    -417.91817693 Ry
     Harris-Foulkes estimate   =    -417.91817701 Ry
     estimated scf accuracy    <       0.00000017 Ry

     iteration #  9     ecut=    20.00 Ry     beta= 0.70
     Davidson diagonalization with overlap
     ethr =  3.21E-10,  avg # of iterations =  3.3

     total cpu time spent up to now is      101.1 secs

     total energy              =    -417.91817699 Ry
     Harris-Foulkes estimate   =    -417.91817704 Ry
     estimated scf accuracy    <       0.00000017 Ry

     iteration # 10     ecut=    20.00 Ry     beta= 0.70
     Davidson diagonalization with overlap
     ethr =  3.21E-10,  avg # of iterations =  3.0

     total cpu time spent up to now is      110.9 secs

     total energy              =    -417.91817701 Ry
     Harris-Foulkes estimate   =    -417.91817701 Ry
     estimated scf accuracy    <          4.9E-09 Ry

     iteration # 11     ecut=    20.00 Ry     beta= 0.70
     Davidson diagonalization with overlap
     ethr =  9.48E-12,  avg # of iterations =  3.1

     total cpu time spent up to now is      123.3 secs

     total energy              =    -417.91817701 Ry
     Harris-Foulkes estimate   =    -417.91817701 Ry
     estimated scf accuracy    <          4.4E-10 Ry

     iteration # 12     ecut=    20.00 Ry     beta= 0.70
     Davidson diagonalization with overlap
     ethr =  8.49E-13,  avg # of iterations =  3.1

     total cpu time spent up to now is      134.4 secs

     total energy              =    -417.91817701 Ry
     Harris-Foulkes estimate   =    -417.91817701 Ry
     estimated scf accuracy    <          5.2E-11 Ry

     iteration # 13     ecut=    20.00 Ry     beta= 0.70
     Davidson diagonalization with overlap
     ethr =  1.00E-13,  avg # of iterations =  3.2

     total cpu time spent up to now is      145.0 secs

     End of self-consistent calculation

     Number of k-points >= 100: set verbosity='high' to print the bands.

     highest occupied level (ev):    10.7563

!    total energy              =    -417.91817701 Ry
     Harris-Foulkes estimate   =    -417.91817701 Ry
     estimated scf accuracy    <          9.2E-13 Ry

     The total energy is the sum of the following terms:

     one-electron contribution =     -78.24818100 Ry
     hartree contribution      =      76.42677094 Ry
     xc contribution           =    -113.61543115 Ry
     ewald contribution        =    -302.48133581 Ry

     convergence has been achieved in  13 iterations

     Writing output data file SnO2.save
 
     init_run     :      3.45s CPU      3.62s WALL (       1 calls)
     electrons    :    135.70s CPU    140.97s WALL (       1 calls)

     Called by init_run:
     wfcinit      :      3.34s CPU      3.51s WALL (       1 calls)
     potinit      :      0.02s CPU      0.03s WALL (       1 calls)
     hinit0       :      0.07s CPU      0.08s WALL (       1 calls)

     Called by electrons:
     c_bands      :    124.55s CPU    129.40s WALL (      13 calls)
     sum_band     :     11.03s CPU     11.44s WALL (      13 calls)
     v_of_rho     :      0.10s CPU      0.10s WALL (      14 calls)
     mix_rho      :      0.02s CPU      0.03s WALL (      13 calls)

     Called by c_bands:
     init_us_2    :      0.95s CPU      1.75s WALL (    5022 calls)
     cegterg      :    114.56s CPU    119.25s WALL (    2418 calls)

     Called by sum_band:

     Called by *egterg:
     h_psi        :     70.76s CPU     76.75s WALL (    9563 calls)
     g_psi        :      0.42s CPU      0.55s WALL (    6959 calls)
     cdiaghg      :     27.00s CPU     26.91s WALL (    9377 calls)

     Called by h_psi:
     h_psi:pot    :     70.49s CPU     76.34s WALL (    9563 calls)
     h_psi:calbec :      8.01s CPU      8.05s WALL (    9563 calls)
     vloc_psi     :     57.53s CPU     59.45s WALL (    9563 calls)
     add_vuspsi   :      4.93s CPU      8.79s WALL (    9563 calls)

     General routines
     calbec       :      8.01s CPU      8.02s WALL (    9563 calls)
     fft          :      0.04s CPU      0.04s WALL (     141 calls)
     ffts         :      0.00s CPU      0.00s WALL (      13 calls)
     fftw         :     67.43s CPU     64.38s WALL (  417998 calls)
 
     Parallel routines
     fft_scatt_xy :      0.73s CPU      6.30s WALL (  418152 calls)
     fft_scatt_yz :     61.10s CPU     14.42s WALL (  418152 calls)
 
     PWSCF        :  2m19.79s CPU     2m26.32s WALL

 
   This run was terminated on:  23:56:43   7Apr2018            

=------------------------------------------------------------------------------=
   JOB DONE.
=------------------------------------------------------------------------------=
