
     Program PWSCF v.6.2.2 starts on 21Apr2018 at 19:16:45 

     This program is part of the open-source Quantum ESPRESSO suite
     for quantum simulation of materials; please cite
         "P. Giannozzi et al., J. Phys.:Condens. Matter 21 395502 (2009);
         "P. Giannozzi et al., J. Phys.:Condens. Matter 29 465901 (2017);
          URL http://www.quantum-espresso.org", 
     in publications or presentations arising from this work. More details at
     http://www.quantum-espresso.org/quote

     Parallel version (MPI), running on     2 processors

     MPI processes distributed on     1 nodes
     R & G space division:  proc/nbgrp/npool/nimage =       2
     Reading input from Conv_etot-ecut.in
Warning: card &IONS ignored
Warning: card / ignored
Warning: card &CELL ignored
Warning: card / ignored

     Current dimensions of program PWSCF are:
     Max number of different atomic species (ntypx) = 10
     Max number of k-points (npk) =  40000
     Max angular momentum in pseudopotentials (lmaxx) =  3

     Subspace diagonalization in iterative solution of the eigenvalue problem:
     a serial algorithm will be used

 
     Parallelization info
     --------------------
     sticks:   dense  smooth     PW     G-vecs:    dense   smooth      PW
     Min         790     790    240                15880    15880    2600
     Max         791     791    241                15883    15883    2601
     Sum        1581    1581    481                31763    31763    5201
 


     bravais-lattice index     =            6
     lattice parameter (alat)  =       9.1100  a.u.
     unit-cell volume          =     506.5589 (a.u.)^3
     number of atoms/cell      =            6
     number of atomic types    =            2
     number of electrons       =        52.00
     number of Kohn-Sham states=           26
     kinetic-energy cutoff     =      60.0000  Ry
     charge density cutoff     =     240.0000  Ry
     convergence threshold     =      1.0E-12
     mixing beta               =       0.7000
     number of iterations used =            8  plain     mixing
     Exchange-correlation      = PBE ( 1  4  3  4 0 0)

     celldm(1)=   9.110000  celldm(2)=   0.000000  celldm(3)=   0.670000
     celldm(4)=   0.000000  celldm(5)=   0.000000  celldm(6)=   0.000000

     crystal axes: (cart. coord. in units of alat)
               a(1) = (   1.000000   0.000000   0.000000 )  
               a(2) = (   0.000000   1.000000   0.000000 )  
               a(3) = (   0.000000   0.000000   0.670000 )  

     reciprocal axes: (cart. coord. in units 2 pi/alat)
               b(1) = (  1.000000  0.000000  0.000000 )  
               b(2) = (  0.000000  1.000000  0.000000 )  
               b(3) = (  0.000000  0.000000  1.492537 )  


     PseudoPot. # 1 for Sn read from file:
     ../../Pseudo_potentials/Sn_PBE.upf
     MD5 check sum: 78e6386ae56e929f0568ae8bf606a80c
     Pseudo is Norm-conserving + core correction, Zval = 14.0
     Generated using ONCVPSP code by D. R. Hamann
     Using radial grid of 1628 points,  6 beta functions with: 
                l(1) =   0
                l(2) =   0
                l(3) =   1
                l(4) =   1
                l(5) =   2
                l(6) =   2

     PseudoPot. # 2 for O  read from file:
     ../../Pseudo_potentials/O_PBE.upf
     MD5 check sum: 3e3f909f7470e8921608ab6b1f57bbae
     Pseudo is Norm-conserving + core correction, Zval =  6.0
     Generated using ONCVPSP code by D. R. Hamann
     Using radial grid of  936 points,  5 beta functions with: 
                l(1) =   0
                l(2) =   0
                l(3) =   1
                l(4) =   1
                l(5) =   2

     atomic species   valence    mass     pseudopotential
        Sn            14.00   118.71000     Sn( 1.00)
        O              6.00    15.99900     O ( 1.00)

      4 Sym. Ops. (no inversion) found



   Cartesian axes

     site n.     atom                  positions (alat units)
         1           Sn  tau(   1) = (   0.0000000   0.0000000   0.0000000  )
         2           Sn  tau(   2) = (   0.5000000   0.5000000   0.3350000  )
         3           O   tau(   3) = (   0.8060000   0.1930000   0.3350000  )
         4           O   tau(   4) = (   0.1930000   0.8060000   0.3350000  )
         5           O   tau(   5) = (   0.3060000   0.3060000   0.0000000  )
         6           O   tau(   6) = (   0.6930000   0.6930000   0.0000000  )

     number of k points=   301

     Number of k-points >= 100: set verbosity='high' to print them.

     Dense  grid:    31763 G-vectors     FFT dimensions: (  45,  45,  32)

     Estimated max dynamical RAM per process >     260.61 MB

     Estimated total dynamical RAM >     521.23 MB

     Check: negative/imaginary core charge=   -0.000033    0.000000

     Initial potential from superposition of free atoms

     starting charge   51.99690, renormalised to   52.00000
     Starting wfc are   34 randomized atomic wfcs

     total cpu time spent up to now is       32.5 secs

     Self-consistent Calculation

     iteration #  1     ecut=    60.00 Ry     beta= 0.70
     Davidson diagonalization with overlap
     ethr =  1.00E-02,  avg # of iterations =  2.0

     total cpu time spent up to now is      107.5 secs

     total energy              =    -446.82842608 Ry
     Harris-Foulkes estimate   =    -447.97919199 Ry
     estimated scf accuracy    <       1.56898197 Ry

     iteration #  2     ecut=    60.00 Ry     beta= 0.70
     Davidson diagonalization with overlap
     ethr =  3.02E-03,  avg # of iterations =  3.1

     total cpu time spent up to now is      202.7 secs

     total energy              =    -447.23132447 Ry
     Harris-Foulkes estimate   =    -448.00270377 Ry
     estimated scf accuracy    <       1.58547678 Ry

     iteration #  3     ecut=    60.00 Ry     beta= 0.70
     Davidson diagonalization with overlap
     ethr =  3.02E-03,  avg # of iterations =  3.0

     total cpu time spent up to now is      293.1 secs

     total energy              =    -447.54349288 Ry
     Harris-Foulkes estimate   =    -447.54416870 Ry
     estimated scf accuracy    <       0.00601878 Ry

     iteration #  4     ecut=    60.00 Ry     beta= 0.70
     Davidson diagonalization with overlap
     ethr =  1.16E-05,  avg # of iterations =  3.0

     total cpu time spent up to now is      391.3 secs

     total energy              =    -447.54657262 Ry
     Harris-Foulkes estimate   =    -447.54680148 Ry
     estimated scf accuracy    <       0.00048505 Ry

     iteration #  5     ecut=    60.00 Ry     beta= 0.70
     Davidson diagonalization with overlap
     ethr =  9.33E-07,  avg # of iterations =  2.5

     total cpu time spent up to now is      467.0 secs

     total energy              =    -447.54660541 Ry
     Harris-Foulkes estimate   =    -447.54661618 Ry
     estimated scf accuracy    <       0.00003305 Ry

     iteration #  6     ecut=    60.00 Ry     beta= 0.70
     Davidson diagonalization with overlap
     ethr =  6.36E-08,  avg # of iterations =  3.3

     total cpu time spent up to now is      571.6 secs

     total energy              =    -447.54667766 Ry
     Harris-Foulkes estimate   =    -447.54668047 Ry
     estimated scf accuracy    <       0.00000775 Ry

     iteration #  7     ecut=    60.00 Ry     beta= 0.70
     Davidson diagonalization with overlap
     ethr =  1.49E-08,  avg # of iterations =  3.1

     total cpu time spent up to now is      661.2 secs

     total energy              =    -447.54667865 Ry
     Harris-Foulkes estimate   =    -447.54667953 Ry
     estimated scf accuracy    <       0.00000198 Ry

     iteration #  8     ecut=    60.00 Ry     beta= 0.70
     Davidson diagonalization with overlap
     ethr =  3.81E-09,  avg # of iterations =  3.0

     total cpu time spent up to now is      753.2 secs

     total energy              =    -447.54667917 Ry
     Harris-Foulkes estimate   =    -447.54667922 Ry
     estimated scf accuracy    <       0.00000013 Ry

     iteration #  9     ecut=    60.00 Ry     beta= 0.70
     Davidson diagonalization with overlap
     ethr =  2.42E-10,  avg # of iterations =  2.2

     total cpu time spent up to now is      839.0 secs

     total energy              =    -447.54667918 Ry
     Harris-Foulkes estimate   =    -447.54667919 Ry
     estimated scf accuracy    <       0.00000001 Ry

     iteration # 10     ecut=    60.00 Ry     beta= 0.70
     Davidson diagonalization with overlap
     ethr =  2.01E-11,  avg # of iterations =  3.0

     total cpu time spent up to now is      933.7 secs

     total energy              =    -447.54667919 Ry
     Harris-Foulkes estimate   =    -447.54667919 Ry
     estimated scf accuracy    <          1.1E-09 Ry

     iteration # 11     ecut=    60.00 Ry     beta= 0.70
     Davidson diagonalization with overlap
     ethr =  2.15E-12,  avg # of iterations =  3.6

     total cpu time spent up to now is     1027.8 secs

     total energy              =    -447.54667919 Ry
     Harris-Foulkes estimate   =    -447.54667919 Ry
     estimated scf accuracy    <          1.7E-10 Ry

     iteration # 12     ecut=    60.00 Ry     beta= 0.70
     Davidson diagonalization with overlap
     ethr =  3.31E-13,  avg # of iterations =  3.0

     total cpu time spent up to now is     1116.1 secs

     total energy              =    -447.54667919 Ry
     Harris-Foulkes estimate   =    -447.54667919 Ry
     estimated scf accuracy    <          4.3E-12 Ry

     iteration # 13     ecut=    60.00 Ry     beta= 0.70
     Davidson diagonalization with overlap
     ethr =  1.00E-13,  avg # of iterations =  1.2

     total cpu time spent up to now is     1183.6 secs

     End of self-consistent calculation

     Number of k-points >= 100: set verbosity='high' to print the bands.

     highest occupied level (ev):     9.0639

!    total energy              =    -447.54667919 Ry
     Harris-Foulkes estimate   =    -447.54667919 Ry
     estimated scf accuracy    <          5.8E-13 Ry

     The total energy is the sum of the following terms:

     one-electron contribution =    -123.97451194 Ry
     hartree contribution      =     101.01317997 Ry
     xc contribution           =    -122.10401141 Ry
     ewald contribution        =    -302.48133581 Ry

     convergence has been achieved in  13 iterations

     Writing output data file SnO2.save
 
     init_run     :     31.01s CPU     32.19s WALL (       1 calls)
     electrons    :   1108.80s CPU   1151.11s WALL (       1 calls)

     Called by init_run:
     wfcinit      :     30.50s CPU     31.66s WALL (       1 calls)
     potinit      :      0.10s CPU      0.11s WALL (       1 calls)
     hinit0       :      0.23s CPU      0.24s WALL (       1 calls)

     Called by electrons:
     c_bands      :    988.90s CPU   1026.42s WALL (      13 calls)
     sum_band     :    119.28s CPU    123.99s WALL (      13 calls)
     v_of_rho     :      0.47s CPU      0.49s WALL (      14 calls)
     mix_rho      :      0.16s CPU      0.19s WALL (      13 calls)

     Called by c_bands:
     init_us_2    :     22.32s CPU     23.15s WALL (    8127 calls)
     cegterg      :    885.71s CPU    920.44s WALL (    3913 calls)

     Called by sum_band:

     Called by *egterg:
     h_psi        :    722.77s CPU    751.16s WALL (   15062 calls)
     g_psi        :      5.97s CPU      6.01s WALL (   10848 calls)
     cdiaghg      :     37.28s CPU     36.19s WALL (   14761 calls)

     Called by h_psi:
     h_psi:pot    :    715.09s CPU    742.15s WALL (   15062 calls)
     h_psi:calbec :     71.39s CPU     71.49s WALL (   15062 calls)
     vloc_psi     :    590.97s CPU    611.17s WALL (   15062 calls)
     add_vuspsi   :     52.65s CPU     59.35s WALL (   15062 calls)

     General routines
     calbec       :     71.38s CPU     71.43s WALL (   15062 calls)
     fft          :      0.24s CPU      0.27s WALL (     141 calls)
     ffts         :      0.02s CPU      0.02s WALL (      13 calls)
     fftw         :    660.43s CPU    666.18s WALL (  661244 calls)
 
     Parallel routines
     fft_scatt_xy :     27.91s CPU     43.97s WALL (  661398 calls)
     fft_scatt_yz :    315.18s CPU    138.99s WALL (  661398 calls)
 
     PWSCF        : 19m 0.98s CPU    19m51.94s WALL

 
   This run was terminated on:  19:36:37  21Apr2018            

=------------------------------------------------------------------------------=
   JOB DONE.
=------------------------------------------------------------------------------=
