
     Program PWSCF v.6.2.2 starts on 21Apr2018 at 17:17:16 

     This program is part of the open-source Quantum ESPRESSO suite
     for quantum simulation of materials; please cite
         "P. Giannozzi et al., J. Phys.:Condens. Matter 21 395502 (2009);
         "P. Giannozzi et al., J. Phys.:Condens. Matter 29 465901 (2017);
          URL http://www.quantum-espresso.org", 
     in publications or presentations arising from this work. More details at
     http://www.quantum-espresso.org/quote

     Parallel version (MPI), running on     2 processors

     MPI processes distributed on     1 nodes
     R & G space division:  proc/nbgrp/npool/nimage =       2
     Reading input from Conv_etot-ecut.in
Warning: card &IONS ignored
Warning: card / ignored
Warning: card &CELL ignored
Warning: card / ignored

     Current dimensions of program PWSCF are:
     Max number of different atomic species (ntypx) = 10
     Max number of k-points (npk) =  40000
     Max angular momentum in pseudopotentials (lmaxx) =  3

     Subspace diagonalization in iterative solution of the eigenvalue problem:
     a serial algorithm will be used

 
     Parallelization info
     --------------------
     sticks:   dense  smooth     PW     G-vecs:    dense   smooth      PW
     Min          50      50     22                  261      261      88
     Max          51      51     23                  262      262      89
     Sum         101     101     45                  523      523     177
 


     bravais-lattice index     =            6
     lattice parameter (alat)  =       9.1100  a.u.
     unit-cell volume          =     506.5589 (a.u.)^3
     number of atoms/cell      =            6
     number of atomic types    =            2
     number of electrons       =        52.00
     number of Kohn-Sham states=           26
     kinetic-energy cutoff     =       4.0000  Ry
     charge density cutoff     =      16.0000  Ry
     convergence threshold     =      1.0E-12
     mixing beta               =       0.7000
     number of iterations used =            8  plain     mixing
     Exchange-correlation      = PBE ( 1  4  3  4 0 0)

     celldm(1)=   9.110000  celldm(2)=   0.000000  celldm(3)=   0.670000
     celldm(4)=   0.000000  celldm(5)=   0.000000  celldm(6)=   0.000000

     crystal axes: (cart. coord. in units of alat)
               a(1) = (   1.000000   0.000000   0.000000 )  
               a(2) = (   0.000000   1.000000   0.000000 )  
               a(3) = (   0.000000   0.000000   0.670000 )  

     reciprocal axes: (cart. coord. in units 2 pi/alat)
               b(1) = (  1.000000  0.000000  0.000000 )  
               b(2) = (  0.000000  1.000000  0.000000 )  
               b(3) = (  0.000000  0.000000  1.492537 )  


     PseudoPot. # 1 for Sn read from file:
     ../../Pseudo_potentials/Sn_PBE.upf
     MD5 check sum: 78e6386ae56e929f0568ae8bf606a80c
     Pseudo is Norm-conserving + core correction, Zval = 14.0
     Generated using ONCVPSP code by D. R. Hamann
     Using radial grid of 1628 points,  6 beta functions with: 
                l(1) =   0
                l(2) =   0
                l(3) =   1
                l(4) =   1
                l(5) =   2
                l(6) =   2

     PseudoPot. # 2 for O  read from file:
     ../../Pseudo_potentials/O_PBE.upf
     MD5 check sum: 3e3f909f7470e8921608ab6b1f57bbae
     Pseudo is Norm-conserving + core correction, Zval =  6.0
     Generated using ONCVPSP code by D. R. Hamann
     Using radial grid of  936 points,  5 beta functions with: 
                l(1) =   0
                l(2) =   0
                l(3) =   1
                l(4) =   1
                l(5) =   2

     atomic species   valence    mass     pseudopotential
        Sn            14.00   118.71000     Sn( 1.00)
        O              6.00    15.99900     O ( 1.00)

      4 Sym. Ops. (no inversion) found



   Cartesian axes

     site n.     atom                  positions (alat units)
         1           Sn  tau(   1) = (   0.0000000   0.0000000   0.0000000  )
         2           Sn  tau(   2) = (   0.5000000   0.5000000   0.3350000  )
         3           O   tau(   3) = (   0.8060000   0.1930000   0.3350000  )
         4           O   tau(   4) = (   0.1930000   0.8060000   0.3350000  )
         5           O   tau(   5) = (   0.3060000   0.3060000   0.0000000  )
         6           O   tau(   6) = (   0.6930000   0.6930000   0.0000000  )

     number of k points=   301

     Number of k-points >= 100: set verbosity='high' to print them.

     Dense  grid:      523 G-vectors     FFT dimensions: (  12,  12,   8)

     Estimated max dynamical RAM per process >       5.85 MB

     Estimated total dynamical RAM >      11.70 MB

     Check: negative/imaginary core charge=   -0.030374    0.000000

     Initial potential from superposition of free atoms
     Check: negative starting charge=   -0.207911

     starting charge   51.99690, renormalised to   52.00000

     negative rho (up, down):  2.079E-01 0.000E+00
     Starting wfc are   34 randomized atomic wfcs


     total cpu time spent up to now is        1.4 secs

     Self-consistent Calculation

     iteration #  1     ecut=     4.00 Ry     beta= 0.70
     Davidson diagonalization with overlap

 %%%%%%%%%%%%%%%%%%%%%%%%%%%%%%%%%%%%%%%%%%%%%%%%%%%%%%%%%%%%%%%%%%%%%%%%%%%%%%
     Error in routine diag_bands (1):
     too many bands, or too few plane waves
 %%%%%%%%%%%%%%%%%%%%%%%%%%%%%%%%%%%%%%%%%%%%%%%%%%%%%%%%%%%%%%%%%%%%%%%%%%%%%%

     stopping ...
 %%%%%%%%%%%%%%%%%%%%%%%%%%%%%%%%%%%%%%%%%%%%%%%%%%%%%%%%%%%%%%%%%%%%%%%%%%%%%%
     Error in routine diag_bands (1):
     too many bands, or too few plane waves
 %%%%%%%%%%%%%%%%%%%%%%%%%%%%%%%%%%%%%%%%%%%%%%%%%%%%%%%%%%%%%%%%%%%%%%%%%%%%%%

     stopping ...
