
     Program PWSCF v.6.2.2 starts on 21Apr2018 at 20:25:46 

     This program is part of the open-source Quantum ESPRESSO suite
     for quantum simulation of materials; please cite
         "P. Giannozzi et al., J. Phys.:Condens. Matter 21 395502 (2009);
         "P. Giannozzi et al., J. Phys.:Condens. Matter 29 465901 (2017);
          URL http://www.quantum-espresso.org", 
     in publications or presentations arising from this work. More details at
     http://www.quantum-espresso.org/quote

     Parallel version (MPI), running on     2 processors

     MPI processes distributed on     1 nodes
     R & G space division:  proc/nbgrp/npool/nimage =       2
     Reading input from Conv_etot-ecut.in
Warning: card &IONS ignored
Warning: card / ignored
Warning: card &CELL ignored
Warning: card / ignored

     Current dimensions of program PWSCF are:
     Max number of different atomic species (ntypx) = 10
     Max number of k-points (npk) =  40000
     Max angular momentum in pseudopotentials (lmaxx) =  3

     Subspace diagonalization in iterative solution of the eigenvalue problem:
     a serial algorithm will be used

 
     Parallelization info
     --------------------
     sticks:   dense  smooth     PW     G-vecs:    dense   smooth      PW
     Min         996     996    288                22220    22220    3536
     Max         997     997    289                22221    22221    3539
     Sum        1993    1993    577                44441    44441    7075
 


     bravais-lattice index     =            6
     lattice parameter (alat)  =       9.1100  a.u.
     unit-cell volume          =     506.5589 (a.u.)^3
     number of atoms/cell      =            6
     number of atomic types    =            2
     number of electrons       =        52.00
     number of Kohn-Sham states=           26
     kinetic-energy cutoff     =      75.0000  Ry
     charge density cutoff     =     300.0000  Ry
     convergence threshold     =      1.0E-12
     mixing beta               =       0.7000
     number of iterations used =            8  plain     mixing
     Exchange-correlation      = PBE ( 1  4  3  4 0 0)

     celldm(1)=   9.110000  celldm(2)=   0.000000  celldm(3)=   0.670000
     celldm(4)=   0.000000  celldm(5)=   0.000000  celldm(6)=   0.000000

     crystal axes: (cart. coord. in units of alat)
               a(1) = (   1.000000   0.000000   0.000000 )  
               a(2) = (   0.000000   1.000000   0.000000 )  
               a(3) = (   0.000000   0.000000   0.670000 )  

     reciprocal axes: (cart. coord. in units 2 pi/alat)
               b(1) = (  1.000000  0.000000  0.000000 )  
               b(2) = (  0.000000  1.000000  0.000000 )  
               b(3) = (  0.000000  0.000000  1.492537 )  


     PseudoPot. # 1 for Sn read from file:
     ../../Pseudo_potentials/Sn_PBE.upf
     MD5 check sum: 78e6386ae56e929f0568ae8bf606a80c
     Pseudo is Norm-conserving + core correction, Zval = 14.0
     Generated using ONCVPSP code by D. R. Hamann
     Using radial grid of 1628 points,  6 beta functions with: 
                l(1) =   0
                l(2) =   0
                l(3) =   1
                l(4) =   1
                l(5) =   2
                l(6) =   2

     PseudoPot. # 2 for O  read from file:
     ../../Pseudo_potentials/O_PBE.upf
     MD5 check sum: 3e3f909f7470e8921608ab6b1f57bbae
     Pseudo is Norm-conserving + core correction, Zval =  6.0
     Generated using ONCVPSP code by D. R. Hamann
     Using radial grid of  936 points,  5 beta functions with: 
                l(1) =   0
                l(2) =   0
                l(3) =   1
                l(4) =   1
                l(5) =   2

     atomic species   valence    mass     pseudopotential
        Sn            14.00   118.71000     Sn( 1.00)
        O              6.00    15.99900     O ( 1.00)

      4 Sym. Ops. (no inversion) found



   Cartesian axes

     site n.     atom                  positions (alat units)
         1           Sn  tau(   1) = (   0.0000000   0.0000000   0.0000000  )
         2           Sn  tau(   2) = (   0.5000000   0.5000000   0.3350000  )
         3           O   tau(   3) = (   0.8060000   0.1930000   0.3350000  )
         4           O   tau(   4) = (   0.1930000   0.8060000   0.3350000  )
         5           O   tau(   5) = (   0.3060000   0.3060000   0.0000000  )
         6           O   tau(   6) = (   0.6930000   0.6930000   0.0000000  )

     number of k points=   301

     Number of k-points >= 100: set verbosity='high' to print them.

     Dense  grid:    44441 G-vectors     FFT dimensions: (  54,  54,  36)

     Estimated max dynamical RAM per process >     363.47 MB

     Estimated total dynamical RAM >     726.93 MB

     Check: negative/imaginary core charge=   -0.000002    0.000000

     Initial potential from superposition of free atoms

     starting charge   51.99690, renormalised to   52.00000
     Starting wfc are   34 randomized atomic wfcs

     total cpu time spent up to now is       52.4 secs

     Self-consistent Calculation

     iteration #  1     ecut=    75.00 Ry     beta= 0.70
     Davidson diagonalization with overlap
     ethr =  1.00E-02,  avg # of iterations =  2.0

     total cpu time spent up to now is      170.1 secs

     total energy              =    -446.85034837 Ry
     Harris-Foulkes estimate   =    -448.03124980 Ry
     estimated scf accuracy    <       1.60349590 Ry

     iteration #  2     ecut=    75.00 Ry     beta= 0.70
     Davidson diagonalization with overlap
     ethr =  3.08E-03,  avg # of iterations =  3.1

     total cpu time spent up to now is      304.3 secs

     total energy              =    -447.26306364 Ry
     Harris-Foulkes estimate   =    -448.06016764 Ry
     estimated scf accuracy    <       1.64235916 Ry

     iteration #  3     ecut=    75.00 Ry     beta= 0.70
     Davidson diagonalization with overlap
     ethr =  3.08E-03,  avg # of iterations =  3.0

     total cpu time spent up to now is      432.3 secs

     total energy              =    -447.58547122 Ry
     Harris-Foulkes estimate   =    -447.58613097 Ry
     estimated scf accuracy    <       0.00602700 Ry

     iteration #  4     ecut=    75.00 Ry     beta= 0.70
     Davidson diagonalization with overlap
     ethr =  1.16E-05,  avg # of iterations =  3.0

     total cpu time spent up to now is      574.0 secs

     total energy              =    -447.58876143 Ry
     Harris-Foulkes estimate   =    -447.58901865 Ry
     estimated scf accuracy    <       0.00054275 Ry

     iteration #  5     ecut=    75.00 Ry     beta= 0.70
     Davidson diagonalization with overlap
     ethr =  1.04E-06,  avg # of iterations =  2.1

     total cpu time spent up to now is      679.7 secs

     total energy              =    -447.58879370 Ry
     Harris-Foulkes estimate   =    -447.58880749 Ry
     estimated scf accuracy    <       0.00003918 Ry

     iteration #  6     ecut=    75.00 Ry     beta= 0.70
     Davidson diagonalization with overlap
     ethr =  7.53E-08,  avg # of iterations =  3.2

     total cpu time spent up to now is      828.7 secs

     total energy              =    -447.58886801 Ry
     Harris-Foulkes estimate   =    -447.58887168 Ry
     estimated scf accuracy    <       0.00001015 Ry

     iteration #  7     ecut=    75.00 Ry     beta= 0.70
     Davidson diagonalization with overlap
     ethr =  1.95E-08,  avg # of iterations =  3.1

     total cpu time spent up to now is      959.1 secs

     total energy              =    -447.58886945 Ry
     Harris-Foulkes estimate   =    -447.58887052 Ry
     estimated scf accuracy    <       0.00000243 Ry

     iteration #  8     ecut=    75.00 Ry     beta= 0.70
     Davidson diagonalization with overlap
     ethr =  4.67E-09,  avg # of iterations =  3.0

     total cpu time spent up to now is     1103.1 secs

     total energy              =    -447.58887007 Ry
     Harris-Foulkes estimate   =    -447.58887013 Ry
     estimated scf accuracy    <       0.00000015 Ry

     iteration #  9     ecut=    75.00 Ry     beta= 0.70
     Davidson diagonalization with overlap
     ethr =  2.97E-10,  avg # of iterations =  3.0

     total cpu time spent up to now is     1242.3 secs

     total energy              =    -447.58887009 Ry
     Harris-Foulkes estimate   =    -447.58887010 Ry
     estimated scf accuracy    <       0.00000003 Ry

     iteration # 10     ecut=    75.00 Ry     beta= 0.70
     Davidson diagonalization with overlap
     ethr =  6.38E-11,  avg # of iterations =  3.0

     total cpu time spent up to now is     1375.2 secs

     total energy              =    -447.58887009 Ry
     Harris-Foulkes estimate   =    -447.58887009 Ry
     estimated scf accuracy    <          1.6E-09 Ry

     iteration # 11     ecut=    75.00 Ry     beta= 0.70
     Davidson diagonalization with overlap
     ethr =  3.15E-12,  avg # of iterations =  3.0

     total cpu time spent up to now is     1513.1 secs

     total energy              =    -447.58887009 Ry
     Harris-Foulkes estimate   =    -447.58887009 Ry
     estimated scf accuracy    <          5.9E-11 Ry

     iteration # 12     ecut=    75.00 Ry     beta= 0.70
     Davidson diagonalization with overlap
     ethr =  1.13E-13,  avg # of iterations =  3.0

     total cpu time spent up to now is     1649.9 secs

     total energy              =    -447.58887009 Ry
     Harris-Foulkes estimate   =    -447.58887009 Ry
     estimated scf accuracy    <          5.6E-12 Ry

     iteration # 13     ecut=    75.00 Ry     beta= 0.70
     Davidson diagonalization with overlap
     ethr =  1.00E-13,  avg # of iterations =  1.6

     total cpu time spent up to now is     1748.7 secs

     End of self-consistent calculation

     Number of k-points >= 100: set verbosity='high' to print the bands.

     highest occupied level (ev):     9.0664

!    total energy              =    -447.58887009 Ry
     Harris-Foulkes estimate   =    -447.58887009 Ry
     estimated scf accuracy    <          3.0E-13 Ry

     The total energy is the sum of the following terms:

     one-electron contribution =    -124.05012952 Ry
     hartree contribution      =     101.06626908 Ry
     xc contribution           =    -122.12367385 Ry
     ewald contribution        =    -302.48133580 Ry

     convergence has been achieved in  13 iterations

     Writing output data file SnO2.save
 
     init_run     :     50.67s CPU     51.83s WALL (       1 calls)
     electrons    :   1672.26s CPU   1696.31s WALL (       1 calls)

     Called by init_run:
     wfcinit      :     50.18s CPU     50.99s WALL (       1 calls)
     potinit      :      0.15s CPU      0.16s WALL (       1 calls)
     hinit0       :      0.30s CPU      0.62s WALL (       1 calls)

     Called by electrons:
     c_bands      :   1483.38s CPU   1503.82s WALL (      13 calls)
     sum_band     :    187.85s CPU    191.39s WALL (      13 calls)
     v_of_rho     :      0.79s CPU      0.81s WALL (      14 calls)
     mix_rho      :      0.24s CPU      0.26s WALL (      13 calls)

     Called by c_bands:
     init_us_2    :     39.69s CPU     40.16s WALL (    8127 calls)
     cegterg      :   1332.66s CPU   1352.03s WALL (    3913 calls)

     Called by sum_band:

     Called by *egterg:
     h_psi        :   1114.09s CPU   1129.40s WALL (   15101 calls)
     g_psi        :      8.61s CPU      8.63s WALL (   10887 calls)
     cdiaghg      :     39.92s CPU     37.26s WALL (   14800 calls)

     Called by h_psi:
     h_psi:pot    :   1097.34s CPU   1112.34s WALL (   15101 calls)
     h_psi:calbec :    103.93s CPU    101.70s WALL (   15101 calls)
     vloc_psi     :    908.33s CPU    920.56s WALL (   15101 calls)
     add_vuspsi   :     84.98s CPU     89.94s WALL (   15101 calls)

     General routines
     calbec       :    103.90s CPU    101.62s WALL (   15101 calls)
     fft          :      0.38s CPU      0.40s WALL (     141 calls)
     ffts         :      0.03s CPU      0.03s WALL (      13 calls)
     fftw         :    986.46s CPU    988.39s WALL (  668004 calls)
 
     Parallel routines
     fft_scatt_xy :     59.39s CPU     71.56s WALL (  668158 calls)
     fft_scatt_yz :    314.58s CPU    175.77s WALL (  668158 calls)
 
     PWSCF        : 28m44.45s CPU    29m23.12s WALL

 
   This run was terminated on:  20:55: 9  21Apr2018            

=------------------------------------------------------------------------------=
   JOB DONE.
=------------------------------------------------------------------------------=
