
     Program PWSCF v.6.2.2 starts on 21Apr2018 at 18:42:11 

     This program is part of the open-source Quantum ESPRESSO suite
     for quantum simulation of materials; please cite
         "P. Giannozzi et al., J. Phys.:Condens. Matter 21 395502 (2009);
         "P. Giannozzi et al., J. Phys.:Condens. Matter 29 465901 (2017);
          URL http://www.quantum-espresso.org", 
     in publications or presentations arising from this work. More details at
     http://www.quantum-espresso.org/quote

     Parallel version (MPI), running on     2 processors

     MPI processes distributed on     1 nodes
     R & G space division:  proc/nbgrp/npool/nimage =       2
     Reading input from Conv_etot-ecut.in
Warning: card &IONS ignored
Warning: card / ignored
Warning: card &CELL ignored
Warning: card / ignored

     Current dimensions of program PWSCF are:
     Max number of different atomic species (ntypx) = 10
     Max number of k-points (npk) =  40000
     Max angular momentum in pseudopotentials (lmaxx) =  3

     Subspace diagonalization in iterative solution of the eigenvalue problem:
     a serial algorithm will be used

 
     Parallelization info
     --------------------
     sticks:   dense  smooth     PW     G-vecs:    dense   smooth      PW
     Min         656     656    200                12096    12096    2034
     Max         657     657    201                12099    12099    2037
     Sum        1313    1313    401                24195    24195    4071
 


     bravais-lattice index     =            6
     lattice parameter (alat)  =       9.1100  a.u.
     unit-cell volume          =     506.5589 (a.u.)^3
     number of atoms/cell      =            6
     number of atomic types    =            2
     number of electrons       =        52.00
     number of Kohn-Sham states=           26
     kinetic-energy cutoff     =      50.0000  Ry
     charge density cutoff     =     200.0000  Ry
     convergence threshold     =      1.0E-12
     mixing beta               =       0.7000
     number of iterations used =            8  plain     mixing
     Exchange-correlation      = PBE ( 1  4  3  4 0 0)

     celldm(1)=   9.110000  celldm(2)=   0.000000  celldm(3)=   0.670000
     celldm(4)=   0.000000  celldm(5)=   0.000000  celldm(6)=   0.000000

     crystal axes: (cart. coord. in units of alat)
               a(1) = (   1.000000   0.000000   0.000000 )  
               a(2) = (   0.000000   1.000000   0.000000 )  
               a(3) = (   0.000000   0.000000   0.670000 )  

     reciprocal axes: (cart. coord. in units 2 pi/alat)
               b(1) = (  1.000000  0.000000  0.000000 )  
               b(2) = (  0.000000  1.000000  0.000000 )  
               b(3) = (  0.000000  0.000000  1.492537 )  


     PseudoPot. # 1 for Sn read from file:
     ../../Pseudo_potentials/Sn_PBE.upf
     MD5 check sum: 78e6386ae56e929f0568ae8bf606a80c
     Pseudo is Norm-conserving + core correction, Zval = 14.0
     Generated using ONCVPSP code by D. R. Hamann
     Using radial grid of 1628 points,  6 beta functions with: 
                l(1) =   0
                l(2) =   0
                l(3) =   1
                l(4) =   1
                l(5) =   2
                l(6) =   2

     PseudoPot. # 2 for O  read from file:
     ../../Pseudo_potentials/O_PBE.upf
     MD5 check sum: 3e3f909f7470e8921608ab6b1f57bbae
     Pseudo is Norm-conserving + core correction, Zval =  6.0
     Generated using ONCVPSP code by D. R. Hamann
     Using radial grid of  936 points,  5 beta functions with: 
                l(1) =   0
                l(2) =   0
                l(3) =   1
                l(4) =   1
                l(5) =   2

     atomic species   valence    mass     pseudopotential
        Sn            14.00   118.71000     Sn( 1.00)
        O              6.00    15.99900     O ( 1.00)

      4 Sym. Ops. (no inversion) found



   Cartesian axes

     site n.     atom                  positions (alat units)
         1           Sn  tau(   1) = (   0.0000000   0.0000000   0.0000000  )
         2           Sn  tau(   2) = (   0.5000000   0.5000000   0.3350000  )
         3           O   tau(   3) = (   0.8060000   0.1930000   0.3350000  )
         4           O   tau(   4) = (   0.1930000   0.8060000   0.3350000  )
         5           O   tau(   5) = (   0.3060000   0.3060000   0.0000000  )
         6           O   tau(   6) = (   0.6930000   0.6930000   0.0000000  )

     number of k points=   301

     Number of k-points >= 100: set verbosity='high' to print them.

     Dense  grid:    24195 G-vectors     FFT dimensions: (  45,  45,  27)

     Estimated max dynamical RAM per process >     199.15 MB

     Estimated total dynamical RAM >     398.30 MB

     Check: negative/imaginary core charge=   -0.000145    0.000000

     Initial potential from superposition of free atoms

     starting charge   51.99690, renormalised to   52.00000
     Starting wfc are   34 randomized atomic wfcs

     total cpu time spent up to now is       26.5 secs

     Self-consistent Calculation

     iteration #  1     ecut=    50.00 Ry     beta= 0.70
     Davidson diagonalization with overlap
     ethr =  1.00E-02,  avg # of iterations =  2.0

     total cpu time spent up to now is       87.5 secs

     total energy              =    -446.60219648 Ry
     Harris-Foulkes estimate   =    -447.64126503 Ry
     estimated scf accuracy    <       1.43633263 Ry

     iteration #  2     ecut=    50.00 Ry     beta= 0.70
     Davidson diagonalization with overlap
     ethr =  2.76E-03,  avg # of iterations =  3.1

     total cpu time spent up to now is      162.9 secs

     total energy              =    -446.96525994 Ry
     Harris-Foulkes estimate   =    -447.64116979 Ry
     estimated scf accuracy    <       1.37567612 Ry

     iteration #  3     ecut=    50.00 Ry     beta= 0.70
     Davidson diagonalization with overlap
     ethr =  2.65E-03,  avg # of iterations =  3.0

     total cpu time spent up to now is      240.2 secs

     total energy              =    -447.24033081 Ry
     Harris-Foulkes estimate   =    -447.24095164 Ry
     estimated scf accuracy    <       0.00605800 Ry

     iteration #  4     ecut=    50.00 Ry     beta= 0.70
     Davidson diagonalization with overlap
     ethr =  1.17E-05,  avg # of iterations =  2.9

     total cpu time spent up to now is      317.4 secs

     total energy              =    -447.24272783 Ry
     Harris-Foulkes estimate   =    -447.24284585 Ry
     estimated scf accuracy    <       0.00026134 Ry

     iteration #  5     ecut=    50.00 Ry     beta= 0.70
     Davidson diagonalization with overlap
     ethr =  5.03E-07,  avg # of iterations =  3.0

     total cpu time spent up to now is      390.7 secs

     total energy              =    -447.24276320 Ry
     Harris-Foulkes estimate   =    -447.24276596 Ry
     estimated scf accuracy    <       0.00001467 Ry

     iteration #  6     ecut=    50.00 Ry     beta= 0.70
     Davidson diagonalization with overlap
     ethr =  2.82E-08,  avg # of iterations =  3.1

     total cpu time spent up to now is      470.7 secs

     total energy              =    -447.24282225 Ry
     Harris-Foulkes estimate   =    -447.24282513 Ry
     estimated scf accuracy    <       0.00000684 Ry

     iteration #  7     ecut=    50.00 Ry     beta= 0.70
     Davidson diagonalization with overlap
     ethr =  1.32E-08,  avg # of iterations =  3.1

     total cpu time spent up to now is      540.4 secs

     total energy              =    -447.24282353 Ry
     Harris-Foulkes estimate   =    -447.24282405 Ry
     estimated scf accuracy    <       0.00000118 Ry

     iteration #  8     ecut=    50.00 Ry     beta= 0.70
     Davidson diagonalization with overlap
     ethr =  2.26E-09,  avg # of iterations =  2.8

     total cpu time spent up to now is      608.8 secs

     total energy              =    -447.24282369 Ry
     Harris-Foulkes estimate   =    -447.24282371 Ry
     estimated scf accuracy    <       0.00000006 Ry

     iteration #  9     ecut=    50.00 Ry     beta= 0.70
     Davidson diagonalization with overlap
     ethr =  1.21E-10,  avg # of iterations =  3.0

     total cpu time spent up to now is      693.1 secs

     total energy              =    -447.24282371 Ry
     Harris-Foulkes estimate   =    -447.24282372 Ry
     estimated scf accuracy    <       0.00000001 Ry

     iteration # 10     ecut=    50.00 Ry     beta= 0.70
     Davidson diagonalization with overlap
     ethr =  2.81E-11,  avg # of iterations =  3.0

     total cpu time spent up to now is      764.9 secs

     total energy              =    -447.24282371 Ry
     Harris-Foulkes estimate   =    -447.24282371 Ry
     estimated scf accuracy    <          2.1E-09 Ry

     iteration # 11     ecut=    50.00 Ry     beta= 0.70
     Davidson diagonalization with overlap
     ethr =  4.09E-12,  avg # of iterations =  3.0

     total cpu time spent up to now is      844.3 secs

     total energy              =    -447.24282371 Ry
     Harris-Foulkes estimate   =    -447.24282371 Ry
     estimated scf accuracy    <          4.9E-11 Ry

     iteration # 12     ecut=    50.00 Ry     beta= 0.70
     Davidson diagonalization with overlap
     ethr =  1.00E-13,  avg # of iterations =  2.4

     total cpu time spent up to now is      918.2 secs

     total energy              =    -447.24282371 Ry
     Harris-Foulkes estimate   =    -447.24282371 Ry
     estimated scf accuracy    <          1.0E-11 Ry

     iteration # 13     ecut=    50.00 Ry     beta= 0.70
     Davidson diagonalization with overlap
     ethr =  1.00E-13,  avg # of iterations =  1.0

     total cpu time spent up to now is      971.6 secs

     End of self-consistent calculation

     Number of k-points >= 100: set verbosity='high' to print the bands.

     highest occupied level (ev):     9.0910

!    total energy              =    -447.24282371 Ry
     Harris-Foulkes estimate   =    -447.24282371 Ry
     estimated scf accuracy    <          6.3E-13 Ry

     The total energy is the sum of the following terms:

     one-electron contribution =    -123.43396705 Ry
     hartree contribution      =     100.65916768 Ry
     xc contribution           =    -121.98668853 Ry
     ewald contribution        =    -302.48133581 Ry

     convergence has been achieved in  13 iterations

     Writing output data file SnO2.save
 
     init_run     :     25.86s CPU     26.17s WALL (       1 calls)
     electrons    :    938.59s CPU    945.07s WALL (       1 calls)

     Called by init_run:
     wfcinit      :     25.45s CPU     25.74s WALL (       1 calls)
     potinit      :      0.08s CPU      0.09s WALL (       1 calls)
     hinit0       :      0.22s CPU      0.23s WALL (       1 calls)

     Called by electrons:
     c_bands      :    837.14s CPU    842.88s WALL (      13 calls)
     sum_band     :    100.93s CPU    101.65s WALL (      13 calls)
     v_of_rho     :      0.41s CPU      0.41s WALL (      14 calls)
     mix_rho      :      0.12s CPU      0.12s WALL (      13 calls)

     Called by c_bands:
     init_us_2    :     17.78s CPU     17.96s WALL (    8127 calls)
     cegterg      :    757.48s CPU    762.74s WALL (    3913 calls)

     Called by sum_band:

     Called by *egterg:
     h_psi        :    621.79s CPU    626.81s WALL (   14834 calls)
     g_psi        :      4.72s CPU      4.76s WALL (   10620 calls)
     cdiaghg      :     39.19s CPU     36.34s WALL (   14533 calls)

     Called by h_psi:
     h_psi:pot    :    614.85s CPU    619.58s WALL (   14834 calls)
     h_psi:calbec :     56.93s CPU     55.14s WALL (   14834 calls)
     vloc_psi     :    514.37s CPU    516.23s WALL (   14834 calls)
     add_vuspsi   :     43.45s CPU     48.07s WALL (   14834 calls)

     General routines
     calbec       :     56.89s CPU     55.08s WALL (   14834 calls)
     fft          :      0.21s CPU      0.21s WALL (     141 calls)
     ffts         :      0.02s CPU      0.02s WALL (      13 calls)
     fftw         :    563.76s CPU    558.24s WALL (  670190 calls)
 
     Parallel routines
     fft_scatt_xy :     26.12s CPU     37.67s WALL (  670344 calls)
     fft_scatt_yz :    206.92s CPU     90.25s WALL (  670344 calls)
 
     PWSCF        : 16m 5.50s CPU    16m18.28s WALL

 
   This run was terminated on:  18:58:29  21Apr2018            

=------------------------------------------------------------------------------=
   JOB DONE.
=------------------------------------------------------------------------------=
