
     Program PWSCF v.6.2.2 starts on 18Apr2018 at 17:48:32 

     This program is part of the open-source Quantum ESPRESSO suite
     for quantum simulation of materials; please cite
         "P. Giannozzi et al., J. Phys.:Condens. Matter 21 395502 (2009);
         "P. Giannozzi et al., J. Phys.:Condens. Matter 29 465901 (2017);
          URL http://www.quantum-espresso.org", 
     in publications or presentations arising from this work. More details at
     http://www.quantum-espresso.org/quote

     Parallel version (MPI), running on     2 processors

     MPI processes distributed on     1 nodes
     R & G space division:  proc/nbgrp/npool/nimage =       2
     Reading input from Conv_etot-ecut.in
Warning: card &IONS ignored
Warning: card / ignored
Warning: card &CELL ignored
Warning: card / ignored

     Current dimensions of program PWSCF are:
     Max number of different atomic species (ntypx) = 10
     Max number of k-points (npk) =  40000
     Max angular momentum in pseudopotentials (lmaxx) =  3

     Subspace diagonalization in iterative solution of the eigenvalue problem:
     a serial algorithm will be used

 
     Parallelization info
     --------------------
     sticks:   dense  smooth     PW     G-vecs:    dense   smooth      PW
     Min         332     332    110                 4313     4313     791
     Max         333     333    111                 4314     4314     792
     Sum         665     665    221                 8627     8627    1583
 


     bravais-lattice index     =            6
     lattice parameter (alat)  =       9.1100  a.u.
     unit-cell volume          =     506.5589 (a.u.)^3
     number of atoms/cell      =            6
     number of atomic types    =            2
     number of electrons       =        52.00
     number of Kohn-Sham states=           26
     kinetic-energy cutoff     =      25.0000  Ry
     charge density cutoff     =     100.0000  Ry
     convergence threshold     =      1.0E-12
     mixing beta               =       0.7000
     number of iterations used =            8  plain     mixing
     Exchange-correlation      = PBE ( 1  4  3  4 0 0)

     celldm(1)=   9.110000  celldm(2)=   0.000000  celldm(3)=   0.670000
     celldm(4)=   0.000000  celldm(5)=   0.000000  celldm(6)=   0.000000

     crystal axes: (cart. coord. in units of alat)
               a(1) = (   1.000000   0.000000   0.000000 )  
               a(2) = (   0.000000   1.000000   0.000000 )  
               a(3) = (   0.000000   0.000000   0.670000 )  

     reciprocal axes: (cart. coord. in units 2 pi/alat)
               b(1) = (  1.000000  0.000000  0.000000 )  
               b(2) = (  0.000000  1.000000  0.000000 )  
               b(3) = (  0.000000  0.000000  1.492537 )  


     PseudoPot. # 1 for Sn read from file:
     ../../Pseudo_potentials/Sn_PBE.upf
     MD5 check sum: 78e6386ae56e929f0568ae8bf606a80c
     Pseudo is Norm-conserving + core correction, Zval = 14.0
     Generated using ONCVPSP code by D. R. Hamann
     Using radial grid of 1628 points,  6 beta functions with: 
                l(1) =   0
                l(2) =   0
                l(3) =   1
                l(4) =   1
                l(5) =   2
                l(6) =   2

     PseudoPot. # 2 for O  read from file:
     ../../Pseudo_potentials/O_PBE.upf
     MD5 check sum: 3e3f909f7470e8921608ab6b1f57bbae
     Pseudo is Norm-conserving + core correction, Zval =  6.0
     Generated using ONCVPSP code by D. R. Hamann
     Using radial grid of  936 points,  5 beta functions with: 
                l(1) =   0
                l(2) =   0
                l(3) =   1
                l(4) =   1
                l(5) =   2

     atomic species   valence    mass     pseudopotential
        Sn            14.00   118.71000     Sn( 1.00)
        O              6.00    15.99900     O ( 1.00)

      4 Sym. Ops. (no inversion) found



   Cartesian axes

     site n.     atom                  positions (alat units)
         1           Sn  tau(   1) = (   0.0000000   0.0000000   0.0000000  )
         2           Sn  tau(   2) = (   0.5000000   0.5000000   0.3350000  )
         3           O   tau(   3) = (   0.8060000   0.1930000   0.3350000  )
         4           O   tau(   4) = (   0.1930000   0.8060000   0.3350000  )
         5           O   tau(   5) = (   0.3060000   0.3060000   0.0000000  )
         6           O   tau(   6) = (   0.6930000   0.6930000   0.0000000  )

     number of k points=   301

     Number of k-points >= 100: set verbosity='high' to print them.

     Dense  grid:     8627 G-vectors     FFT dimensions: (  30,  30,  20)

     Estimated max dynamical RAM per process >      71.79 MB

     Estimated total dynamical RAM >     143.59 MB

     Check: negative/imaginary core charge=   -0.002394    0.000000

     Initial potential from superposition of free atoms
     Check: negative starting charge=   -0.009566

     starting charge   51.99690, renormalised to   52.00000

     negative rho (up, down):  9.566E-03 0.000E+00
     Starting wfc are   34 randomized atomic wfcs

     total cpu time spent up to now is        8.1 secs

     Self-consistent Calculation

     iteration #  1     ecut=    25.00 Ry     beta= 0.70
     Davidson diagonalization with overlap
     ethr =  1.00E-02,  avg # of iterations =  2.0

     negative rho (up, down):  2.854E-03 0.000E+00

     total cpu time spent up to now is       30.2 secs

     total energy              =    -429.62689828 Ry
     Harris-Foulkes estimate   =    -432.65702069 Ry
     estimated scf accuracy    <       4.17149218 Ry

     iteration #  2     ecut=    25.00 Ry     beta= 0.70
     Davidson diagonalization with overlap
     ethr =  8.02E-03,  avg # of iterations =  2.0

     negative rho (up, down):  8.835E-04 0.000E+00

     total cpu time spent up to now is       50.4 secs

     total energy              =    -430.40192414 Ry
     Harris-Foulkes estimate   =    -430.54313058 Ry
     estimated scf accuracy    <       0.25007710 Ry

     iteration #  3     ecut=    25.00 Ry     beta= 0.70
     Davidson diagonalization with overlap
     ethr =  4.81E-04,  avg # of iterations =  2.8

     negative rho (up, down):  1.605E-04 0.000E+00

     total cpu time spent up to now is       72.2 secs

     total energy              =    -430.44805120 Ry
     Harris-Foulkes estimate   =    -430.46196238 Ry
     estimated scf accuracy    <       0.02981340 Ry

     iteration #  4     ecut=    25.00 Ry     beta= 0.70
     Davidson diagonalization with overlap
     ethr =  5.73E-05,  avg # of iterations =  2.9

     total cpu time spent up to now is       93.8 secs

     total energy              =    -430.45348942 Ry
     Harris-Foulkes estimate   =    -430.45530499 Ry
     estimated scf accuracy    <       0.00355385 Ry

     iteration #  5     ecut=    25.00 Ry     beta= 0.70
     Davidson diagonalization with overlap
     ethr =  6.83E-06,  avg # of iterations =  3.0

     total cpu time spent up to now is      115.9 secs

     total energy              =    -430.45432236 Ry
     Harris-Foulkes estimate   =    -430.45440678 Ry
     estimated scf accuracy    <       0.00017355 Ry

     iteration #  6     ecut=    25.00 Ry     beta= 0.70
     Davidson diagonalization with overlap
     ethr =  3.34E-07,  avg # of iterations =  3.0

     total cpu time spent up to now is      137.9 secs

     total energy              =    -430.45436619 Ry
     Harris-Foulkes estimate   =    -430.45437081 Ry
     estimated scf accuracy    <       0.00001004 Ry

     iteration #  7     ecut=    25.00 Ry     beta= 0.70
     Davidson diagonalization with overlap
     ethr =  1.93E-08,  avg # of iterations =  3.1

     total cpu time spent up to now is      159.1 secs

     total energy              =    -430.45436754 Ry
     Harris-Foulkes estimate   =    -430.45436830 Ry
     estimated scf accuracy    <       0.00000191 Ry

     iteration #  8     ecut=    25.00 Ry     beta= 0.70
     Davidson diagonalization with overlap
     ethr =  3.66E-09,  avg # of iterations =  3.0

     total cpu time spent up to now is      179.7 secs

     total energy              =    -430.45436785 Ry
     Harris-Foulkes estimate   =    -430.45436787 Ry
     estimated scf accuracy    <       0.00000005 Ry

     iteration #  9     ecut=    25.00 Ry     beta= 0.70
     Davidson diagonalization with overlap
     ethr =  9.14E-11,  avg # of iterations =  3.3

     total cpu time spent up to now is      205.4 secs

     total energy              =    -430.45436786 Ry
     Harris-Foulkes estimate   =    -430.45436787 Ry
     estimated scf accuracy    <       0.00000001 Ry

     iteration # 10     ecut=    25.00 Ry     beta= 0.70
     Davidson diagonalization with overlap
     ethr =  2.48E-11,  avg # of iterations =  3.0

     total cpu time spent up to now is      226.2 secs

     total energy              =    -430.45436786 Ry
     Harris-Foulkes estimate   =    -430.45436787 Ry
     estimated scf accuracy    <          3.0E-09 Ry

     iteration # 11     ecut=    25.00 Ry     beta= 0.70
     Davidson diagonalization with overlap
     ethr =  5.81E-12,  avg # of iterations =  3.1

     total cpu time spent up to now is      248.3 secs

     total energy              =    -430.45436786 Ry
     Harris-Foulkes estimate   =    -430.45436786 Ry
     estimated scf accuracy    <          1.3E-10 Ry

     iteration # 12     ecut=    25.00 Ry     beta= 0.70
     Davidson diagonalization with overlap
     ethr =  2.50E-13,  avg # of iterations =  3.0

     total cpu time spent up to now is      270.2 secs

     End of self-consistent calculation

     Number of k-points >= 100: set verbosity='high' to print the bands.

     highest occupied level (ev):     9.8298

!    total energy              =    -430.45436786 Ry
     Harris-Foulkes estimate   =    -430.45436786 Ry
     estimated scf accuracy    <          7.8E-13 Ry

     The total energy is the sum of the following terms:

     one-electron contribution =     -96.64733462 Ry
     hartree contribution      =      85.51100512 Ry
     xc contribution           =    -116.83670002 Ry
     ewald contribution        =    -302.48133834 Ry

     convergence has been achieved in  12 iterations

     Writing output data file SnO2.save
 
     init_run     :      7.49s CPU      7.77s WALL (       1 calls)
     electrons    :    254.04s CPU    262.12s WALL (       1 calls)

     Called by init_run:
     wfcinit      :      7.35s CPU      7.63s WALL (       1 calls)
     potinit      :      0.03s CPU      0.03s WALL (       1 calls)
     hinit0       :      0.09s CPU      0.09s WALL (       1 calls)

     Called by electrons:
     c_bands      :    227.47s CPU    234.51s WALL (      12 calls)
     sum_band     :     26.45s CPU     27.47s WALL (      12 calls)
     v_of_rho     :      0.11s CPU      0.11s WALL (      13 calls)
     mix_rho      :      0.01s CPU      0.02s WALL (      12 calls)

     Called by c_bands:
     init_us_2    :      3.45s CPU      4.47s WALL (    7525 calls)
     cegterg      :    205.35s CPU    212.03s WALL (    3612 calls)

     Called by sum_band:

     Called by *egterg:
     h_psi        :    152.11s CPU    160.56s WALL (   14225 calls)
     g_psi        :      1.97s CPU      2.29s WALL (   10312 calls)
     cdiaghg      :     31.58s CPU     31.13s WALL (   13924 calls)

     Called by h_psi:
     h_psi:pot    :    151.56s CPU    159.72s WALL (   14225 calls)
     h_psi:calbec :     11.65s CPU     11.04s WALL (   14225 calls)
     vloc_psi     :    135.53s CPU    138.69s WALL (   14225 calls)
     add_vuspsi   :      4.35s CPU      9.91s WALL (   14225 calls)

     General routines
     calbec       :     11.64s CPU     11.01s WALL (   14225 calls)
     fft          :      0.05s CPU      0.05s WALL (     131 calls)
     ffts         :      0.00s CPU      0.00s WALL (      12 calls)
     fftw         :    158.33s CPU    151.60s WALL (  623598 calls)
 
     Parallel routines
     fft_scatt_xy :      2.28s CPU     12.71s WALL (  623741 calls)
     fft_scatt_yz :    131.05s CPU     21.14s WALL (  623741 calls)
 
     PWSCF        :  4m22.18s CPU     4m33.15s WALL

 
   This run was terminated on:  17:53: 5  18Apr2018            

=------------------------------------------------------------------------------=
   JOB DONE.
=------------------------------------------------------------------------------=
