
     Program PWSCF v.6.2.2 starts on 21Apr2018 at 17:17:19 

     This program is part of the open-source Quantum ESPRESSO suite
     for quantum simulation of materials; please cite
         "P. Giannozzi et al., J. Phys.:Condens. Matter 21 395502 (2009);
         "P. Giannozzi et al., J. Phys.:Condens. Matter 29 465901 (2017);
          URL http://www.quantum-espresso.org", 
     in publications or presentations arising from this work. More details at
     http://www.quantum-espresso.org/quote

     Parallel version (MPI), running on     2 processors

     MPI processes distributed on     1 nodes
     R & G space division:  proc/nbgrp/npool/nimage =       2
     Reading input from Conv_etot-ecut.in
Warning: card &IONS ignored
Warning: card / ignored
Warning: card &CELL ignored
Warning: card / ignored

     Current dimensions of program PWSCF are:
     Max number of different atomic species (ntypx) = 10
     Max number of k-points (npk) =  40000
     Max angular momentum in pseudopotentials (lmaxx) =  3

     Subspace diagonalization in iterative solution of the eigenvalue problem:
     a serial algorithm will be used

 
     Parallelization info
     --------------------
     sticks:   dense  smooth     PW     G-vecs:    dense   smooth      PW
     Min         106     106     44                  782      782     191
     Max         107     107     45                  785      785     192
     Sum         213     213     89                 1567     1567     383
 


     bravais-lattice index     =            6
     lattice parameter (alat)  =       9.1100  a.u.
     unit-cell volume          =     506.5589 (a.u.)^3
     number of atoms/cell      =            6
     number of atomic types    =            2
     number of electrons       =        52.00
     number of Kohn-Sham states=           26
     kinetic-energy cutoff     =       8.0000  Ry
     charge density cutoff     =      32.0000  Ry
     convergence threshold     =      1.0E-12
     mixing beta               =       0.7000
     number of iterations used =            8  plain     mixing
     Exchange-correlation      = PBE ( 1  4  3  4 0 0)

     celldm(1)=   9.110000  celldm(2)=   0.000000  celldm(3)=   0.670000
     celldm(4)=   0.000000  celldm(5)=   0.000000  celldm(6)=   0.000000

     crystal axes: (cart. coord. in units of alat)
               a(1) = (   1.000000   0.000000   0.000000 )  
               a(2) = (   0.000000   1.000000   0.000000 )  
               a(3) = (   0.000000   0.000000   0.670000 )  

     reciprocal axes: (cart. coord. in units 2 pi/alat)
               b(1) = (  1.000000  0.000000  0.000000 )  
               b(2) = (  0.000000  1.000000  0.000000 )  
               b(3) = (  0.000000  0.000000  1.492537 )  


     PseudoPot. # 1 for Sn read from file:
     ../../Pseudo_potentials/Sn_PBE.upf
     MD5 check sum: 78e6386ae56e929f0568ae8bf606a80c
     Pseudo is Norm-conserving + core correction, Zval = 14.0
     Generated using ONCVPSP code by D. R. Hamann
     Using radial grid of 1628 points,  6 beta functions with: 
                l(1) =   0
                l(2) =   0
                l(3) =   1
                l(4) =   1
                l(5) =   2
                l(6) =   2

     PseudoPot. # 2 for O  read from file:
     ../../Pseudo_potentials/O_PBE.upf
     MD5 check sum: 3e3f909f7470e8921608ab6b1f57bbae
     Pseudo is Norm-conserving + core correction, Zval =  6.0
     Generated using ONCVPSP code by D. R. Hamann
     Using radial grid of  936 points,  5 beta functions with: 
                l(1) =   0
                l(2) =   0
                l(3) =   1
                l(4) =   1
                l(5) =   2

     atomic species   valence    mass     pseudopotential
        Sn            14.00   118.71000     Sn( 1.00)
        O              6.00    15.99900     O ( 1.00)

      4 Sym. Ops. (no inversion) found



   Cartesian axes

     site n.     atom                  positions (alat units)
         1           Sn  tau(   1) = (   0.0000000   0.0000000   0.0000000  )
         2           Sn  tau(   2) = (   0.5000000   0.5000000   0.3350000  )
         3           O   tau(   3) = (   0.8060000   0.1930000   0.3350000  )
         4           O   tau(   4) = (   0.1930000   0.8060000   0.3350000  )
         5           O   tau(   5) = (   0.3060000   0.3060000   0.0000000  )
         6           O   tau(   6) = (   0.6930000   0.6930000   0.0000000  )

     number of k points=   301

     Number of k-points >= 100: set verbosity='high' to print them.

     Dense  grid:     1567 G-vectors     FFT dimensions: (  18,  18,  12)

     Estimated max dynamical RAM per process >      14.39 MB

     Estimated total dynamical RAM >      28.79 MB

     Check: negative/imaginary core charge=   -0.008936    0.000000

     Initial potential from superposition of free atoms
     Check: negative starting charge=   -0.219827

     starting charge   51.99690, renormalised to   52.00000

     negative rho (up, down):  2.198E-01 0.000E+00
     Starting wfc are   34 randomized atomic wfcs

     total cpu time spent up to now is        2.6 secs

     Self-consistent Calculation

     iteration #  1     ecut=     8.00 Ry     beta= 0.70
     Davidson diagonalization with overlap
     ethr =  1.00E-02,  avg # of iterations =  4.1

     total cpu time spent up to now is       13.7 secs

     total energy              =    -351.41613103 Ry
     Harris-Foulkes estimate   =    -395.90144930 Ry
     estimated scf accuracy    <      57.08281117 Ry

     iteration #  2     ecut=     8.00 Ry     beta= 0.70
     Davidson diagonalization with overlap
     ethr =  1.00E-02,  avg # of iterations =  4.1

     total cpu time spent up to now is       27.0 secs

     total energy              =    -360.23864834 Ry
     Harris-Foulkes estimate   =    -368.08083970 Ry
     estimated scf accuracy    <      12.70697066 Ry

     iteration #  3     ecut=     8.00 Ry     beta= 0.70
     Davidson diagonalization with overlap
     ethr =  1.00E-02,  avg # of iterations =  3.9

     total cpu time spent up to now is       37.9 secs

     total energy              =    -362.70695615 Ry
     Harris-Foulkes estimate   =    -363.49032605 Ry
     estimated scf accuracy    <       1.16805057 Ry

     iteration #  4     ecut=     8.00 Ry     beta= 0.70
     Davidson diagonalization with overlap
     ethr =  2.25E-03,  avg # of iterations =  2.2

     total cpu time spent up to now is       45.0 secs

     total energy              =    -362.92462463 Ry
     Harris-Foulkes estimate   =    -362.94698864 Ry
     estimated scf accuracy    <       0.04238873 Ry

     iteration #  5     ecut=     8.00 Ry     beta= 0.70
     Davidson diagonalization with overlap
     ethr =  8.15E-05,  avg # of iterations =  3.3

     total cpu time spent up to now is       53.7 secs

     total energy              =    -362.93188245 Ry
     Harris-Foulkes estimate   =    -362.93505871 Ry
     estimated scf accuracy    <       0.00455489 Ry

     iteration #  6     ecut=     8.00 Ry     beta= 0.70
     Davidson diagonalization with overlap
     ethr =  8.76E-06,  avg # of iterations =  4.1

     total cpu time spent up to now is       64.6 secs

     total energy              =    -362.93257769 Ry
     Harris-Foulkes estimate   =    -362.93603148 Ry
     estimated scf accuracy    <       0.00941696 Ry

     iteration #  7     ecut=     8.00 Ry     beta= 0.70
     Davidson diagonalization with overlap
     ethr =  8.76E-06,  avg # of iterations =  3.7

     total cpu time spent up to now is       74.0 secs

     total energy              =    -362.93406013 Ry
     Harris-Foulkes estimate   =    -362.93424815 Ry
     estimated scf accuracy    <       0.00039096 Ry

     iteration #  8     ecut=     8.00 Ry     beta= 0.70
     Davidson diagonalization with overlap
     ethr =  7.52E-07,  avg # of iterations =  3.6

     total cpu time spent up to now is       83.2 secs

     total energy              =    -362.93412975 Ry
     Harris-Foulkes estimate   =    -362.93419493 Ry
     estimated scf accuracy    <       0.00014179 Ry

     iteration #  9     ecut=     8.00 Ry     beta= 0.70
     Davidson diagonalization with overlap
     ethr =  2.73E-07,  avg # of iterations =  3.3

     total cpu time spent up to now is       91.0 secs

     total energy              =    -362.93414461 Ry
     Harris-Foulkes estimate   =    -362.93415238 Ry
     estimated scf accuracy    <       0.00000129 Ry

     iteration # 10     ecut=     8.00 Ry     beta= 0.70
     Davidson diagonalization with overlap
     ethr =  2.48E-09,  avg # of iterations =  4.1

     total cpu time spent up to now is      102.0 secs

     total energy              =    -362.93414437 Ry
     Harris-Foulkes estimate   =    -362.93414552 Ry
     estimated scf accuracy    <       0.00000075 Ry

     iteration # 11     ecut=     8.00 Ry     beta= 0.70
     Davidson diagonalization with overlap
     ethr =  1.45E-09,  avg # of iterations =  3.2

     total cpu time spent up to now is      110.3 secs

     total energy              =    -362.93414440 Ry
     Harris-Foulkes estimate   =    -362.93414455 Ry
     estimated scf accuracy    <       0.00000011 Ry

     iteration # 12     ecut=     8.00 Ry     beta= 0.70
     Davidson diagonalization with overlap
     ethr =  2.04E-10,  avg # of iterations =  3.7

     total cpu time spent up to now is      119.2 secs

     total energy              =    -362.93414442 Ry
     Harris-Foulkes estimate   =    -362.93414446 Ry
     estimated scf accuracy    <       0.00000003 Ry

     iteration # 13     ecut=     8.00 Ry     beta= 0.70
     Davidson diagonalization with overlap
     ethr =  5.79E-11,  avg # of iterations =  4.6

     total cpu time spent up to now is      131.0 secs

     total energy              =    -362.93414400 Ry
     Harris-Foulkes estimate   =    -362.93414455 Ry
     estimated scf accuracy    <       0.00000004 Ry

     iteration # 14     ecut=     8.00 Ry     beta= 0.70
     Davidson diagonalization with overlap
     ethr =  5.79E-11,  avg # of iterations =  5.0

     total cpu time spent up to now is      143.6 secs

     total energy              =    -362.93414431 Ry
     Harris-Foulkes estimate   =    -362.93414435 Ry
     estimated scf accuracy    <       0.00000077 Ry

     iteration # 15     ecut=     8.00 Ry     beta= 0.70
     Davidson diagonalization with overlap
     ethr =  5.79E-11,  avg # of iterations =  2.1

     total cpu time spent up to now is      149.2 secs

     total energy              =    -362.93414388 Ry
     Harris-Foulkes estimate   =    -362.93414431 Ry
     estimated scf accuracy    <       0.00000065 Ry

     iteration # 16     ecut=     8.00 Ry     beta= 0.70
     Davidson diagonalization with overlap
     ethr =  5.79E-11,  avg # of iterations =  4.5

     total cpu time spent up to now is      162.7 secs

     total energy              =    -362.93414392 Ry
     Harris-Foulkes estimate   =    -362.93414408 Ry
     estimated scf accuracy    <       0.00000011 Ry

     iteration # 17     ecut=     8.00 Ry     beta= 0.70
     Davidson diagonalization with overlap
     ethr =  5.79E-11,  avg # of iterations =  4.5

     total cpu time spent up to now is      176.3 secs

     total energy              =    -362.93414396 Ry
     Harris-Foulkes estimate   =    -362.93414407 Ry
     estimated scf accuracy    <       0.00000136 Ry

     iteration # 18     ecut=     8.00 Ry     beta= 0.70
     Davidson diagonalization with overlap
     ethr =  5.79E-11,  avg # of iterations =  4.6

     total cpu time spent up to now is      190.2 secs

     total energy              =    -362.93414776 Ry
     Harris-Foulkes estimate   =    -362.93414420 Ry
     estimated scf accuracy    <       0.00000005 Ry

     iteration # 19     ecut=     8.00 Ry     beta= 0.70
     Davidson diagonalization with overlap
     c_bands:  1 eigenvalues not converged
     c_bands:  1 eigenvalues not converged
     c_bands:  1 eigenvalues not converged
     c_bands:  1 eigenvalues not converged
     ethr =  5.79E-11,  avg # of iterations =  6.0

     total cpu time spent up to now is      203.6 secs

     total energy              =    -362.93414304 Ry
     Harris-Foulkes estimate   =    -362.93414884 Ry
     estimated scf accuracy    <       0.00000601 Ry

     iteration # 20     ecut=     8.00 Ry     beta= 0.70
     Davidson diagonalization with overlap
     c_bands:  1 eigenvalues not converged
     c_bands:  1 eigenvalues not converged
     c_bands:  1 eigenvalues not converged
     c_bands:  1 eigenvalues not converged
     ethr =  5.79E-11,  avg # of iterations =  6.2

     total cpu time spent up to now is      216.9 secs

     total energy              =    -362.93414433 Ry
     Harris-Foulkes estimate   =    -362.93414435 Ry
     estimated scf accuracy    <       0.00000020 Ry

     iteration # 21     ecut=     8.00 Ry     beta= 0.70
     Davidson diagonalization with overlap
     ethr =  5.79E-11,  avg # of iterations =  3.5

     total cpu time spent up to now is      224.0 secs

     total energy              =    -362.93414428 Ry
     Harris-Foulkes estimate   =    -362.93414434 Ry
     estimated scf accuracy    <       0.00000011 Ry

     iteration # 22     ecut=     8.00 Ry     beta= 0.70
     Davidson diagonalization with overlap
     ethr =  5.79E-11,  avg # of iterations =  3.8

     total cpu time spent up to now is      233.3 secs

     total energy              =    -362.93414433 Ry
     Harris-Foulkes estimate   =    -362.93414429 Ry
     estimated scf accuracy    <       0.00000002 Ry

     iteration # 23     ecut=     8.00 Ry     beta= 0.70
     Davidson diagonalization with overlap
     ethr =  3.20E-11,  avg # of iterations =  3.7

     total cpu time spent up to now is      241.7 secs

     total energy              =    -362.93414444 Ry
     Harris-Foulkes estimate   =    -362.93414434 Ry
     estimated scf accuracy    <       0.00000002 Ry

     iteration # 24     ecut=     8.00 Ry     beta= 0.70
     Davidson diagonalization with overlap
     ethr =  3.20E-11,  avg # of iterations =  4.9

     total cpu time spent up to now is      253.5 secs

     total energy              =    -362.93414457 Ry
     Harris-Foulkes estimate   =    -362.93414451 Ry
     estimated scf accuracy    <       0.00000004 Ry

     iteration # 25     ecut=     8.00 Ry     beta= 0.70
     Davidson diagonalization with overlap
     ethr =  3.20E-11,  avg # of iterations =  3.5

     total cpu time spent up to now is      261.3 secs

     total energy              =    -362.93414463 Ry
     Harris-Foulkes estimate   =    -362.93414457 Ry
     estimated scf accuracy    <       0.00000005 Ry

     iteration # 26     ecut=     8.00 Ry     beta= 0.70
     Davidson diagonalization with overlap
     ethr =  3.20E-11,  avg # of iterations =  4.0

     total cpu time spent up to now is      269.6 secs

     total energy              =    -362.93414399 Ry
     Harris-Foulkes estimate   =    -362.93414464 Ry
     estimated scf accuracy    <       0.00000006 Ry

     iteration # 27     ecut=     8.00 Ry     beta= 0.70
     Davidson diagonalization with overlap
     ethr =  3.20E-11,  avg # of iterations =  5.1

     total cpu time spent up to now is      283.1 secs

     total energy              =    -362.93414412 Ry
     Harris-Foulkes estimate   =    -362.93414429 Ry
     estimated scf accuracy    <       0.00000002 Ry

     iteration # 28     ecut=     8.00 Ry     beta= 0.70
     Davidson diagonalization with overlap
     ethr =  3.20E-11,  avg # of iterations =  4.6

     total cpu time spent up to now is      294.3 secs

     total energy              =    -362.93414423 Ry
     Harris-Foulkes estimate   =    -362.93414418 Ry
     estimated scf accuracy    <       0.00000002 Ry

     iteration # 29     ecut=     8.00 Ry     beta= 0.70
     Davidson diagonalization with overlap
     ethr =  3.20E-11,  avg # of iterations =  4.0

     total cpu time spent up to now is      304.2 secs

     total energy              =    -362.93414429 Ry
     Harris-Foulkes estimate   =    -362.93414426 Ry
     estimated scf accuracy    <       0.00000002 Ry

     iteration # 30     ecut=     8.00 Ry     beta= 0.70
     Davidson diagonalization with overlap
     ethr =  3.20E-11,  avg # of iterations =  5.1

     total cpu time spent up to now is      317.5 secs

     total energy              =    -362.93414492 Ry
     Harris-Foulkes estimate   =    -362.93414456 Ry
     estimated scf accuracy    <       0.00000004 Ry

     iteration # 31     ecut=     8.00 Ry     beta= 0.70
     Davidson diagonalization with overlap
     ethr =  3.20E-11,  avg # of iterations =  5.3

     total cpu time spent up to now is      331.6 secs

     total energy              =    -362.93414331 Ry
     Harris-Foulkes estimate   =    -362.93414533 Ry
     estimated scf accuracy    <       0.00000016 Ry

     iteration # 32     ecut=     8.00 Ry     beta= 0.70
     Davidson diagonalization with overlap
     c_bands:  1 eigenvalues not converged
     ethr =  3.20E-11,  avg # of iterations =  5.5

     total cpu time spent up to now is      345.9 secs

     total energy              =    -362.93414431 Ry
     Harris-Foulkes estimate   =    -362.93414433 Ry
     estimated scf accuracy    <       0.00000002 Ry

     iteration # 33     ecut=     8.00 Ry     beta= 0.70
     Davidson diagonalization with overlap
     ethr =  3.20E-11,  avg # of iterations =  2.1

     total cpu time spent up to now is      351.9 secs

     total energy              =    -362.93414409 Ry
     Harris-Foulkes estimate   =    -362.93414431 Ry
     estimated scf accuracy    <       0.00000002 Ry

     iteration # 34     ecut=     8.00 Ry     beta= 0.70
     Davidson diagonalization with overlap
     ethr =  3.20E-11,  avg # of iterations =  4.9

     total cpu time spent up to now is      363.9 secs

     total energy              =    -362.93414411 Ry
     Harris-Foulkes estimate   =    -362.93414417 Ry
     estimated scf accuracy    <       0.00000002 Ry

     iteration # 35     ecut=     8.00 Ry     beta= 0.70
     Davidson diagonalization with overlap
     ethr =  3.20E-11,  avg # of iterations =  3.1

     total cpu time spent up to now is      371.5 secs

     total energy              =    -362.93414393 Ry
     Harris-Foulkes estimate   =    -362.93414412 Ry
     estimated scf accuracy    <       0.00000003 Ry

     iteration # 36     ecut=     8.00 Ry     beta= 0.70
     Davidson diagonalization with overlap
     ethr =  3.20E-11,  avg # of iterations =  4.4

     total cpu time spent up to now is      382.3 secs

     total energy              =    -362.93414397 Ry
     Harris-Foulkes estimate   =    -362.93414397 Ry
     estimated scf accuracy    <       0.00000006 Ry

     iteration # 37     ecut=     8.00 Ry     beta= 0.70
     Davidson diagonalization with overlap
     ethr =  3.20E-11,  avg # of iterations =  1.0

     total cpu time spent up to now is      387.1 secs

     total energy              =    -362.93414404 Ry
     Harris-Foulkes estimate   =    -362.93414397 Ry
     estimated scf accuracy    <       0.00000006 Ry

     iteration # 38     ecut=     8.00 Ry     beta= 0.70
     Davidson diagonalization with overlap
     ethr =  3.20E-11,  avg # of iterations =  3.2

     total cpu time spent up to now is      395.2 secs

     total energy              =    -362.93414406 Ry
     Harris-Foulkes estimate   =    -362.93414405 Ry
     estimated scf accuracy    <       0.00000004 Ry

     iteration # 39     ecut=     8.00 Ry     beta= 0.70
     Davidson diagonalization with overlap
     ethr =  3.20E-11,  avg # of iterations =  1.7

     total cpu time spent up to now is      400.5 secs

     total energy              =    -362.93414388 Ry
     Harris-Foulkes estimate   =    -362.93414406 Ry
     estimated scf accuracy    <       0.00000004 Ry

     iteration # 40     ecut=     8.00 Ry     beta= 0.70
     Davidson diagonalization with overlap
     ethr =  3.20E-11,  avg # of iterations =  3.6

     total cpu time spent up to now is      410.0 secs

     total energy              =    -362.93414207 Ry
     Harris-Foulkes estimate   =    -362.93414391 Ry
     estimated scf accuracy    <       0.00000007 Ry

     iteration # 41     ecut=     8.00 Ry     beta= 0.70
     Davidson diagonalization with overlap
     c_bands:  1 eigenvalues not converged
     c_bands:  1 eigenvalues not converged
     c_bands:  1 eigenvalues not converged
     c_bands:  1 eigenvalues not converged
     c_bands:  1 eigenvalues not converged
     c_bands:  1 eigenvalues not converged
     ethr =  3.20E-11,  avg # of iterations =  8.6

     total cpu time spent up to now is      425.1 secs

     total energy              =    -362.93414266 Ry
     Harris-Foulkes estimate   =    -362.93414573 Ry
     estimated scf accuracy    <       0.00000031 Ry

     iteration # 42     ecut=     8.00 Ry     beta= 0.70
     Davidson diagonalization with overlap
     c_bands:  1 eigenvalues not converged
     c_bands:  1 eigenvalues not converged
     c_bands:  1 eigenvalues not converged
     c_bands:  1 eigenvalues not converged
     c_bands:  1 eigenvalues not converged
     c_bands:  1 eigenvalues not converged
     ethr =  3.20E-11,  avg # of iterations =  6.8

     total cpu time spent up to now is      439.7 secs

     total energy              =    -362.93414413 Ry
     Harris-Foulkes estimate   =    -362.93414431 Ry
     estimated scf accuracy    <       0.00000002 Ry

     iteration # 43     ecut=     8.00 Ry     beta= 0.70
     Davidson diagonalization with overlap
     c_bands:  1 eigenvalues not converged
     c_bands:  1 eigenvalues not converged
     ethr =  3.20E-11,  avg # of iterations =  6.0

     total cpu time spent up to now is      454.9 secs

     total energy              =    -362.93414402 Ry
     Harris-Foulkes estimate   =    -362.93414546 Ry
     estimated scf accuracy    <       0.00000026 Ry

     iteration # 44     ecut=     8.00 Ry     beta= 0.70
     Davidson diagonalization with overlap
     ethr =  3.20E-11,  avg # of iterations =  5.4

     total cpu time spent up to now is      470.0 secs

     total energy              =    -362.93414492 Ry
     Harris-Foulkes estimate   =    -362.93414456 Ry
     estimated scf accuracy    <       0.00000004 Ry

     iteration # 45     ecut=     8.00 Ry     beta= 0.70
     Davidson diagonalization with overlap
     ethr =  3.20E-11,  avg # of iterations =  5.4

     total cpu time spent up to now is      486.1 secs

     total energy              =    -362.93414392 Ry
     Harris-Foulkes estimate   =    -362.93414549 Ry
     estimated scf accuracy    <       0.00000027 Ry

     iteration # 46     ecut=     8.00 Ry     beta= 0.70
     Davidson diagonalization with overlap
     c_bands:  1 eigenvalues not converged
     c_bands:  1 eigenvalues not converged
     c_bands:  1 eigenvalues not converged
     c_bands:  1 eigenvalues not converged
     c_bands:  1 eigenvalues not converged
     c_bands:  1 eigenvalues not converged
     c_bands:  1 eigenvalues not converged
     ethr =  3.20E-11,  avg # of iterations =  8.0

     total cpu time spent up to now is      501.6 secs

     total energy              =    -362.93414432 Ry
     Harris-Foulkes estimate   =    -362.93414530 Ry
     estimated scf accuracy    <       0.00000017 Ry

     iteration # 47     ecut=     8.00 Ry     beta= 0.70
     Davidson diagonalization with overlap
     c_bands:  1 eigenvalues not converged
     ethr =  3.20E-11,  avg # of iterations =  5.4

     total cpu time spent up to now is      515.9 secs

     total energy              =    -362.93414563 Ry
     Harris-Foulkes estimate   =    -362.93414479 Ry
     estimated scf accuracy    <       0.00000009 Ry

     iteration # 48     ecut=     8.00 Ry     beta= 0.70
     Davidson diagonalization with overlap
     c_bands:  1 eigenvalues not converged
     c_bands:  1 eigenvalues not converged
     ethr =  3.20E-11,  avg # of iterations =  5.8

     total cpu time spent up to now is      530.5 secs

     total energy              =    -362.93414040 Ry
     Harris-Foulkes estimate   =    -362.93414666 Ry
     estimated scf accuracy    <       0.00000064 Ry

     iteration # 49     ecut=     8.00 Ry     beta= 0.70
     Davidson diagonalization with overlap
     c_bands:  1 eigenvalues not converged
     c_bands:  1 eigenvalues not converged
     c_bands:  1 eigenvalues not converged
     c_bands:  1 eigenvalues not converged
     c_bands:  1 eigenvalues not converged
     c_bands:  1 eigenvalues not converged
     c_bands:  1 eigenvalues not converged
     ethr =  3.20E-11,  avg # of iterations =  8.7

     total cpu time spent up to now is      546.8 secs

     total energy              =    -362.93414424 Ry
     Harris-Foulkes estimate   =    -362.93414418 Ry
     estimated scf accuracy    <       0.00000002 Ry

     iteration # 50     ecut=     8.00 Ry     beta= 0.70
     Davidson diagonalization with overlap
     ethr =  3.20E-11,  avg # of iterations =  4.8

     total cpu time spent up to now is      559.1 secs

     total energy              =    -362.93414444 Ry
     Harris-Foulkes estimate   =    -362.93414435 Ry
     estimated scf accuracy    <       0.00000002 Ry

     iteration # 51     ecut=     8.00 Ry     beta= 0.70
     Davidson diagonalization with overlap
     ethr =  3.20E-11,  avg # of iterations =  5.1

     total cpu time spent up to now is      572.0 secs

     total energy              =    -362.93414458 Ry
     Harris-Foulkes estimate   =    -362.93414454 Ry
     estimated scf accuracy    <       0.00000004 Ry

     iteration # 52     ecut=     8.00 Ry     beta= 0.70
     Davidson diagonalization with overlap
     ethr =  3.20E-11,  avg # of iterations =  2.1

     total cpu time spent up to now is      578.1 secs

     total energy              =    -362.93414462 Ry
     Harris-Foulkes estimate   =    -362.93414458 Ry
     estimated scf accuracy    <       0.00000004 Ry

     iteration # 53     ecut=     8.00 Ry     beta= 0.70
     Davidson diagonalization with overlap
     ethr =  3.20E-11,  avg # of iterations =  3.5

     total cpu time spent up to now is      585.7 secs

     total energy              =    -362.93414464 Ry
     Harris-Foulkes estimate   =    -362.93414463 Ry
     estimated scf accuracy    <       0.00000005 Ry

     iteration # 54     ecut=     8.00 Ry     beta= 0.70
     Davidson diagonalization with overlap
     ethr =  3.20E-11,  avg # of iterations =  1.9

     total cpu time spent up to now is      591.3 secs

     total energy              =    -362.93414455 Ry
     Harris-Foulkes estimate   =    -362.93414464 Ry
     estimated scf accuracy    <       0.00000006 Ry

     iteration # 55     ecut=     8.00 Ry     beta= 0.70
     Davidson diagonalization with overlap
     ethr =  3.20E-11,  avg # of iterations =  3.6

     total cpu time spent up to now is      600.0 secs

     total energy              =    -362.93414438 Ry
     Harris-Foulkes estimate   =    -362.93414456 Ry
     estimated scf accuracy    <       0.00000004 Ry

     iteration # 56     ecut=     8.00 Ry     beta= 0.70
     Davidson diagonalization with overlap
     ethr =  3.20E-11,  avg # of iterations =  4.7

     total cpu time spent up to now is      611.5 secs

     total energy              =    -362.93414435 Ry
     Harris-Foulkes estimate   =    -362.93414442 Ry
     estimated scf accuracy    <       0.00000002 Ry

     iteration # 57     ecut=     8.00 Ry     beta= 0.70
     Davidson diagonalization with overlap
     ethr =  3.20E-11,  avg # of iterations =  3.8

     total cpu time spent up to now is      620.8 secs

     total energy              =    -362.93414399 Ry
     Harris-Foulkes estimate   =    -362.93414436 Ry
     estimated scf accuracy    <       0.00000002 Ry

     iteration # 58     ecut=     8.00 Ry     beta= 0.70
     Davidson diagonalization with overlap
     ethr =  3.20E-11,  avg # of iterations =  5.0

     total cpu time spent up to now is      634.1 secs

     total energy              =    -362.93414406 Ry
     Harris-Foulkes estimate   =    -362.93414415 Ry
     estimated scf accuracy    <       0.00000002 Ry

     iteration # 59     ecut=     8.00 Ry     beta= 0.70
     Davidson diagonalization with overlap
     ethr =  3.20E-11,  avg # of iterations =  3.6

     total cpu time spent up to now is      643.3 secs

     total energy              =    -362.93414402 Ry
     Harris-Foulkes estimate   =    -362.93414407 Ry
     estimated scf accuracy    <       0.00000003 Ry

     iteration # 60     ecut=     8.00 Ry     beta= 0.70
     Davidson diagonalization with overlap
     ethr =  3.20E-11,  avg # of iterations =  2.7

     total cpu time spent up to now is      650.5 secs

     total energy              =    -362.93414398 Ry
     Harris-Foulkes estimate   =    -362.93414402 Ry
     estimated scf accuracy    <       0.00000004 Ry

     iteration # 61     ecut=     8.00 Ry     beta= 0.70
     Davidson diagonalization with overlap
     ethr =  3.20E-11,  avg # of iterations =  2.4

     total cpu time spent up to now is      657.0 secs

     total energy              =    -362.93414402 Ry
     Harris-Foulkes estimate   =    -362.93414399 Ry
     estimated scf accuracy    <       0.00000005 Ry

     iteration # 62     ecut=     8.00 Ry     beta= 0.70
     Davidson diagonalization with overlap
     ethr =  3.20E-11,  avg # of iterations =  2.0

     total cpu time spent up to now is      663.1 secs

     total energy              =    -362.93414406 Ry
     Harris-Foulkes estimate   =    -362.93414402 Ry
     estimated scf accuracy    <       0.00000004 Ry

     iteration # 63     ecut=     8.00 Ry     beta= 0.70
     Davidson diagonalization with overlap
     ethr =  3.20E-11,  avg # of iterations =  2.5

     total cpu time spent up to now is      669.9 secs

     total energy              =    -362.93414397 Ry
     Harris-Foulkes estimate   =    -362.93414407 Ry
     estimated scf accuracy    <       0.00000003 Ry

     iteration # 64     ecut=     8.00 Ry     beta= 0.70
     Davidson diagonalization with overlap
     ethr =  3.20E-11,  avg # of iterations =  3.3

     total cpu time spent up to now is      678.9 secs

     total energy              =    -362.93414404 Ry
     Harris-Foulkes estimate   =    -362.93414398 Ry
     estimated scf accuracy    <       0.00000005 Ry

     iteration # 65     ecut=     8.00 Ry     beta= 0.70
     Davidson diagonalization with overlap
     ethr =  3.20E-11,  avg # of iterations =  3.2

     total cpu time spent up to now is      687.3 secs

     total energy              =    -362.93414282 Ry
     Harris-Foulkes estimate   =    -362.93414405 Ry
     estimated scf accuracy    <       0.00000004 Ry

     iteration # 66     ecut=     8.00 Ry     beta= 0.70
     Davidson diagonalization with overlap
     c_bands:  1 eigenvalues not converged
     c_bands:  1 eigenvalues not converged
     c_bands:  1 eigenvalues not converged
     c_bands:  1 eigenvalues not converged
     c_bands:  1 eigenvalues not converged
     c_bands:  1 eigenvalues not converged
     ethr =  3.20E-11,  avg # of iterations =  7.9

     total cpu time spent up to now is      702.6 secs

     total energy              =    -362.93414164 Ry
     Harris-Foulkes estimate   =    -362.93414548 Ry
     estimated scf accuracy    <       0.00000027 Ry

     iteration # 67     ecut=     8.00 Ry     beta= 0.70
     Davidson diagonalization with overlap
     c_bands:  1 eigenvalues not converged
     c_bands:  1 eigenvalues not converged
     c_bands:  1 eigenvalues not converged
     c_bands:  1 eigenvalues not converged
     c_bands:  1 eigenvalues not converged
     c_bands:  1 eigenvalues not converged
     ethr =  3.20E-11,  avg # of iterations =  7.8

     total cpu time spent up to now is      717.8 secs

     total energy              =    -362.93414347 Ry
     Harris-Foulkes estimate   =    -362.93414409 Ry
     estimated scf accuracy    <       0.00000003 Ry

     iteration # 68     ecut=     8.00 Ry     beta= 0.70
     Davidson diagonalization with overlap
     c_bands:  1 eigenvalues not converged
     c_bands:  1 eigenvalues not converged
     c_bands:  1 eigenvalues not converged
     c_bands:  1 eigenvalues not converged
     c_bands:  1 eigenvalues not converged
     ethr =  3.20E-11,  avg # of iterations =  6.9

     total cpu time spent up to now is      732.7 secs

     total energy              =    -362.93414329 Ry
     Harris-Foulkes estimate   =    -362.93414514 Ry
     estimated scf accuracy    <       0.00000008 Ry

     iteration # 69     ecut=     8.00 Ry     beta= 0.70
     Davidson diagonalization with overlap
     c_bands:  1 eigenvalues not converged
     c_bands:  1 eigenvalues not converged
     ethr =  3.20E-11,  avg # of iterations =  5.4

     total cpu time spent up to now is      747.5 secs

     total energy              =    -362.93414375 Ry
     Harris-Foulkes estimate   =    -362.93414426 Ry
     estimated scf accuracy    <       0.00000002 Ry

     iteration # 70     ecut=     8.00 Ry     beta= 0.70
     Davidson diagonalization with overlap
     ethr =  3.20E-11,  avg # of iterations =  5.0

     total cpu time spent up to now is      761.2 secs

     total energy              =    -362.93414396 Ry
     Harris-Foulkes estimate   =    -362.93414397 Ry
     estimated scf accuracy    <       0.00000006 Ry

     iteration # 71     ecut=     8.00 Ry     beta= 0.70
     Davidson diagonalization with overlap
     ethr =  3.20E-11,  avg # of iterations =  1.7

     total cpu time spent up to now is      766.7 secs

     total energy              =    -362.93414393 Ry
     Harris-Foulkes estimate   =    -362.93414396 Ry
     estimated scf accuracy    <       0.00000006 Ry

     iteration # 72     ecut=     8.00 Ry     beta= 0.70
     Davidson diagonalization with overlap
     ethr =  3.20E-11,  avg # of iterations =  2.0

     total cpu time spent up to now is      772.7 secs

     total energy              =    -362.93414383 Ry
     Harris-Foulkes estimate   =    -362.93414393 Ry
     estimated scf accuracy    <       0.00000007 Ry

     iteration # 73     ecut=     8.00 Ry     beta= 0.70
     Davidson diagonalization with overlap
     ethr =  3.20E-11,  avg # of iterations =  3.4

     total cpu time spent up to now is      781.2 secs

     total energy              =    -362.93414386 Ry
     Harris-Foulkes estimate   =    -362.93414384 Ry
     estimated scf accuracy    <       0.00000010 Ry

     iteration # 74     ecut=     8.00 Ry     beta= 0.70
     Davidson diagonalization with overlap
     ethr =  3.20E-11,  avg # of iterations =  1.9

     total cpu time spent up to now is      786.8 secs

     total energy              =    -362.93414389 Ry
     Harris-Foulkes estimate   =    -362.93414386 Ry
     estimated scf accuracy    <       0.00000009 Ry

     iteration # 75     ecut=     8.00 Ry     beta= 0.70
     Davidson diagonalization with overlap
     ethr =  3.20E-11,  avg # of iterations =  2.0

     total cpu time spent up to now is      792.9 secs

     total energy              =    -362.93414678 Ry
     Harris-Foulkes estimate   =    -362.93414389 Ry
     estimated scf accuracy    <       0.00000008 Ry

     iteration # 76     ecut=     8.00 Ry     beta= 0.70
     Davidson diagonalization with overlap
     c_bands:  1 eigenvalues not converged
     c_bands:  1 eigenvalues not converged
     c_bands:  1 eigenvalues not converged
     c_bands:  1 eigenvalues not converged
     ethr =  3.20E-11,  avg # of iterations =  6.1

     total cpu time spent up to now is      806.6 secs

     total energy              =    -362.93414356 Ry
     Harris-Foulkes estimate   =    -362.93414702 Ry
     estimated scf accuracy    <       0.00000117 Ry

     iteration # 77     ecut=     8.00 Ry     beta= 0.70
     Davidson diagonalization with overlap
     c_bands:  1 eigenvalues not converged
     c_bands:  1 eigenvalues not converged
     c_bands:  1 eigenvalues not converged
     c_bands:  1 eigenvalues not converged
     c_bands:  1 eigenvalues not converged
     c_bands:  1 eigenvalues not converged
     ethr =  3.20E-11,  avg # of iterations =  7.6

     total cpu time spent up to now is      822.6 secs

     total energy              =    -362.93414435 Ry
     Harris-Foulkes estimate   =    -362.93414444 Ry
     estimated scf accuracy    <       0.00000002 Ry

     iteration # 78     ecut=     8.00 Ry     beta= 0.70
     Davidson diagonalization with overlap
     ethr =  3.20E-11,  avg # of iterations =  3.8

     total cpu time spent up to now is      833.3 secs

     total energy              =    -362.93414445 Ry
     Harris-Foulkes estimate   =    -362.93414437 Ry
     estimated scf accuracy    <       0.00000002 Ry

     iteration # 79     ecut=     8.00 Ry     beta= 0.70
     Davidson diagonalization with overlap
     ethr =  3.20E-11,  avg # of iterations =  4.7

     total cpu time spent up to now is      846.3 secs

     total energy              =    -362.93414452 Ry
     Harris-Foulkes estimate   =    -362.93414450 Ry
     estimated scf accuracy    <       0.00000004 Ry

     iteration # 80     ecut=     8.00 Ry     beta= 0.70
     Davidson diagonalization with overlap
     ethr =  3.20E-11,  avg # of iterations =  2.0

     total cpu time spent up to now is      852.6 secs

     total energy              =    -362.93414464 Ry
     Harris-Foulkes estimate   =    -362.93414452 Ry
     estimated scf accuracy    <       0.00000004 Ry

     iteration # 81     ecut=     8.00 Ry     beta= 0.70
     Davidson diagonalization with overlap
     ethr =  3.20E-11,  avg # of iterations =  4.9

     total cpu time spent up to now is      865.6 secs

     total energy              =    -362.93414286 Ry
     Harris-Foulkes estimate   =    -362.93414468 Ry
     estimated scf accuracy    <       0.00000007 Ry

     iteration # 82     ecut=     8.00 Ry     beta= 0.70
     Davidson diagonalization with overlap
     c_bands:  1 eigenvalues not converged
     c_bands:  1 eigenvalues not converged
     c_bands:  1 eigenvalues not converged
     c_bands:  1 eigenvalues not converged
     c_bands:  1 eigenvalues not converged
     ethr =  3.20E-11,  avg # of iterations =  6.0

     total cpu time spent up to now is      881.8 secs

     total energy              =    -362.93414524 Ry
     Harris-Foulkes estimate   =    -362.93414401 Ry
     estimated scf accuracy    <       0.00000005 Ry

     iteration # 83     ecut=     8.00 Ry     beta= 0.70
     Davidson diagonalization with overlap
     c_bands:  1 eigenvalues not converged
     c_bands:  1 eigenvalues not converged
     c_bands:  1 eigenvalues not converged
     ethr =  3.20E-11,  avg # of iterations =  4.9

     total cpu time spent up to now is      896.5 secs

     total energy              =    -362.93414406 Ry
     Harris-Foulkes estimate   =    -362.93414551 Ry
     estimated scf accuracy    <       0.00000027 Ry

     iteration # 84     ecut=     8.00 Ry     beta= 0.70
     Davidson diagonalization with overlap
     ethr =  3.20E-11,  avg # of iterations =  4.6

     total cpu time spent up to now is      911.9 secs

     total energy              =    -362.93414398 Ry
     Harris-Foulkes estimate   =    -362.93414416 Ry
     estimated scf accuracy    <       0.00000002 Ry

     iteration # 85     ecut=     8.00 Ry     beta= 0.70
     Davidson diagonalization with overlap
     ethr =  3.20E-11,  avg # of iterations =  4.3

     total cpu time spent up to now is      924.0 secs

     total energy              =    -362.93414406 Ry
     Harris-Foulkes estimate   =    -362.93414403 Ry
     estimated scf accuracy    <       0.00000004 Ry

     iteration # 86     ecut=     8.00 Ry     beta= 0.70
     Davidson diagonalization with overlap
     ethr =  3.20E-11,  avg # of iterations =  2.0

     total cpu time spent up to now is      930.9 secs

     total energy              =    -362.93414413 Ry
     Harris-Foulkes estimate   =    -362.93414406 Ry
     estimated scf accuracy    <       0.00000003 Ry

     iteration # 87     ecut=     8.00 Ry     beta= 0.70
     Davidson diagonalization with overlap
     ethr =  3.20E-11,  avg # of iterations =  4.9

     total cpu time spent up to now is      945.8 secs

     total energy              =    -362.93414431 Ry
     Harris-Foulkes estimate   =    -362.93414429 Ry
     estimated scf accuracy    <       0.00000002 Ry

     iteration # 88     ecut=     8.00 Ry     beta= 0.70
     Davidson diagonalization with overlap
     ethr =  3.20E-11,  avg # of iterations =  2.2

     total cpu time spent up to now is      952.8 secs

     total energy              =    -362.93414434 Ry
     Harris-Foulkes estimate   =    -362.93414432 Ry
     estimated scf accuracy    <       0.00000002 Ry

     iteration # 89     ecut=     8.00 Ry     beta= 0.70
     Davidson diagonalization with overlap
     ethr =  3.20E-11,  avg # of iterations =  3.0

     total cpu time spent up to now is      960.6 secs

     total energy              =    -362.93414425 Ry
     Harris-Foulkes estimate   =    -362.93414434 Ry
     estimated scf accuracy    <       0.00000002 Ry

     iteration # 90     ecut=     8.00 Ry     beta= 0.70
     Davidson diagonalization with overlap
     ethr =  3.20E-11,  avg # of iterations =  3.8

     total cpu time spent up to now is      971.3 secs

     total energy              =    -362.93414419 Ry
     Harris-Foulkes estimate   =    -362.93414427 Ry
     estimated scf accuracy    <       0.00000002 Ry

     iteration # 91     ecut=     8.00 Ry     beta= 0.70
     Davidson diagonalization with overlap
     ethr =  3.20E-11,  avg # of iterations =  4.0

     total cpu time spent up to now is      982.2 secs

     total energy              =    -362.93414390 Ry
     Harris-Foulkes estimate   =    -362.93414421 Ry
     estimated scf accuracy    <       0.00000002 Ry

     iteration # 92     ecut=     8.00 Ry     beta= 0.70
     Davidson diagonalization with overlap
     ethr =  3.20E-11,  avg # of iterations =  4.8

     total cpu time spent up to now is      996.1 secs

     total energy              =    -362.93414409 Ry
     Harris-Foulkes estimate   =    -362.93414400 Ry
     estimated scf accuracy    <       0.00000005 Ry

     iteration # 93     ecut=     8.00 Ry     beta= 0.70
     Davidson diagonalization with overlap
     ethr =  3.20E-11,  avg # of iterations =  3.9

     total cpu time spent up to now is     1007.1 secs

     total energy              =    -362.93414417 Ry
     Harris-Foulkes estimate   =    -362.93414411 Ry
     estimated scf accuracy    <       0.00000003 Ry

     iteration # 94     ecut=     8.00 Ry     beta= 0.70
     Davidson diagonalization with overlap
     ethr =  3.20E-11,  avg # of iterations =  3.7

     total cpu time spent up to now is     1017.5 secs

     total energy              =    -362.93414417 Ry
     Harris-Foulkes estimate   =    -362.93414418 Ry
     estimated scf accuracy    <       0.00000002 Ry

     iteration # 95     ecut=     8.00 Ry     beta= 0.70
     Davidson diagonalization with overlap
     ethr =  3.20E-11,  avg # of iterations =  1.0

     total cpu time spent up to now is     1023.1 secs

     total energy              =    -362.93414414 Ry
     Harris-Foulkes estimate   =    -362.93414417 Ry
     estimated scf accuracy    <       0.00000002 Ry

     iteration # 96     ecut=     8.00 Ry     beta= 0.70
     Davidson diagonalization with overlap
     ethr =  3.20E-11,  avg # of iterations =  2.6

     total cpu time spent up to now is     1030.6 secs

     total energy              =    -362.93414418 Ry
     Harris-Foulkes estimate   =    -362.93414414 Ry
     estimated scf accuracy    <       0.00000002 Ry

     iteration # 97     ecut=     8.00 Ry     beta= 0.70
     Davidson diagonalization with overlap
     ethr =  3.20E-11,  avg # of iterations =  2.7

     total cpu time spent up to now is     1038.7 secs

     total energy              =    -362.93414422 Ry
     Harris-Foulkes estimate   =    -362.93414418 Ry
     estimated scf accuracy    <       0.00000002 Ry

     iteration # 98     ecut=     8.00 Ry     beta= 0.70
     Davidson diagonalization with overlap
     ethr =  3.20E-11,  avg # of iterations =  3.9

     total cpu time spent up to now is     1049.0 secs

     total energy              =    -362.93414430 Ry
     Harris-Foulkes estimate   =    -362.93414423 Ry
     estimated scf accuracy    <       0.00000002 Ry

     iteration # 99     ecut=     8.00 Ry     beta= 0.70
     Davidson diagonalization with overlap
     ethr =  3.20E-11,  avg # of iterations =  4.9

     total cpu time spent up to now is     1062.8 secs

     total energy              =    -362.93414524 Ry
     Harris-Foulkes estimate   =    -362.93414438 Ry
     estimated scf accuracy    <       0.00000002 Ry

     iteration #100     ecut=     8.00 Ry     beta= 0.70
     Davidson diagonalization with overlap
     ethr =  3.20E-11,  avg # of iterations =  4.8

     total cpu time spent up to now is     1077.5 secs

     total energy              =    -362.93414432 Ry
     Harris-Foulkes estimate   =    -362.93414529 Ry
     estimated scf accuracy    <       0.00000016 Ry

     End of self-consistent calculation

     convergence NOT achieved after 100 iterations: stopping

     Writing output data file SnO2.save
 
     init_run     :      2.22s CPU      2.32s WALL (       1 calls)
     electrons    :   1046.83s CPU   1074.93s WALL (       1 calls)

     Called by init_run:
     wfcinit      :      2.18s CPU      2.28s WALL (       1 calls)
     potinit      :      0.01s CPU      0.01s WALL (       1 calls)
     hinit0       :      0.03s CPU      0.03s WALL (       1 calls)

     Called by electrons:
     c_bands      :    987.56s CPU   1013.06s WALL (     100 calls)
     sum_band     :     59.00s CPU     61.54s WALL (     100 calls)
     v_of_rho     :      0.19s CPU      0.19s WALL (     101 calls)
     mix_rho      :      0.07s CPU      0.08s WALL (     100 calls)

     Called by c_bands:
     init_us_2    :      2.28s CPU      7.47s WALL (   60501 calls)
     cegterg      :    955.95s CPU    971.36s WALL (   30100 calls)

     Called by sum_band:

     Called by *egterg:
     h_psi        :    409.24s CPU    427.67s WALL (  155827 calls)
     g_psi        :      0.82s CPU      3.19s WALL (  125426 calls)
     cdiaghg      :    456.77s CPU    447.82s WALL (  155526 calls)

     Called by h_psi:
     h_psi:pot    :    408.51s CPU    425.64s WALL (  155827 calls)
     h_psi:calbec :     30.17s CPU     37.05s WALL (  155827 calls)
     vloc_psi     :    370.90s CPU    357.50s WALL (  155827 calls)
     add_vuspsi   :      7.26s CPU     30.12s WALL (  155827 calls)

     General routines
     calbec       :     30.13s CPU     36.58s WALL (  155827 calls)
     fft          :      0.13s CPU      0.10s WALL (    1012 calls)
     ffts         :      0.01s CPU      0.01s WALL (     100 calls)
     fftw         :    426.24s CPU    382.89s WALL ( 5676256 calls)
     davcio       :      0.01s CPU      0.42s WALL (     319 calls)
 
     Parallel routines
     fft_scatt_xy :      2.64s CPU     31.19s WALL ( 5677368 calls)
     fft_scatt_yz :    403.20s CPU    104.52s WALL ( 5677368 calls)
 
     PWSCF        : 17m29.52s CPU    17m58.50s WALL

 
   This run was terminated on:  17:35:17  21Apr2018            

=------------------------------------------------------------------------------=
   JOB DONE.
=------------------------------------------------------------------------------=
