
     Program PWSCF v.6.2.2 starts on 21Apr2018 at 18:29: 9 

     This program is part of the open-source Quantum ESPRESSO suite
     for quantum simulation of materials; please cite
         "P. Giannozzi et al., J. Phys.:Condens. Matter 21 395502 (2009);
         "P. Giannozzi et al., J. Phys.:Condens. Matter 29 465901 (2017);
          URL http://www.quantum-espresso.org", 
     in publications or presentations arising from this work. More details at
     http://www.quantum-espresso.org/quote

     Parallel version (MPI), running on     2 processors

     MPI processes distributed on     1 nodes
     R & G space division:  proc/nbgrp/npool/nimage =       2
     Reading input from Conv_etot-ecut.in
Warning: card &IONS ignored
Warning: card / ignored
Warning: card &CELL ignored
Warning: card / ignored

     Current dimensions of program PWSCF are:
     Max number of different atomic species (ntypx) = 10
     Max number of k-points (npk) =  40000
     Max angular momentum in pseudopotentials (lmaxx) =  3

     Subspace diagonalization in iterative solution of the eigenvalue problem:
     a serial algorithm will be used

 
     Parallelization info
     --------------------
     sticks:   dense  smooth     PW     G-vecs:    dense   smooth      PW
     Min         600     600    178                10337    10337    1732
     Max         601     601    179                10338    10338    1735
     Sum        1201    1201    357                20675    20675    3467
 


     bravais-lattice index     =            6
     lattice parameter (alat)  =       9.1100  a.u.
     unit-cell volume          =     506.5589 (a.u.)^3
     number of atoms/cell      =            6
     number of atomic types    =            2
     number of electrons       =        52.00
     number of Kohn-Sham states=           26
     kinetic-energy cutoff     =      45.0000  Ry
     charge density cutoff     =     180.0000  Ry
     convergence threshold     =      1.0E-12
     mixing beta               =       0.7000
     number of iterations used =            8  plain     mixing
     Exchange-correlation      = PBE ( 1  4  3  4 0 0)

     celldm(1)=   9.110000  celldm(2)=   0.000000  celldm(3)=   0.670000
     celldm(4)=   0.000000  celldm(5)=   0.000000  celldm(6)=   0.000000

     crystal axes: (cart. coord. in units of alat)
               a(1) = (   1.000000   0.000000   0.000000 )  
               a(2) = (   0.000000   1.000000   0.000000 )  
               a(3) = (   0.000000   0.000000   0.670000 )  

     reciprocal axes: (cart. coord. in units 2 pi/alat)
               b(1) = (  1.000000  0.000000  0.000000 )  
               b(2) = (  0.000000  1.000000  0.000000 )  
               b(3) = (  0.000000  0.000000  1.492537 )  


     PseudoPot. # 1 for Sn read from file:
     ../../Pseudo_potentials/Sn_PBE.upf
     MD5 check sum: 78e6386ae56e929f0568ae8bf606a80c
     Pseudo is Norm-conserving + core correction, Zval = 14.0
     Generated using ONCVPSP code by D. R. Hamann
     Using radial grid of 1628 points,  6 beta functions with: 
                l(1) =   0
                l(2) =   0
                l(3) =   1
                l(4) =   1
                l(5) =   2
                l(6) =   2

     PseudoPot. # 2 for O  read from file:
     ../../Pseudo_potentials/O_PBE.upf
     MD5 check sum: 3e3f909f7470e8921608ab6b1f57bbae
     Pseudo is Norm-conserving + core correction, Zval =  6.0
     Generated using ONCVPSP code by D. R. Hamann
     Using radial grid of  936 points,  5 beta functions with: 
                l(1) =   0
                l(2) =   0
                l(3) =   1
                l(4) =   1
                l(5) =   2

     atomic species   valence    mass     pseudopotential
        Sn            14.00   118.71000     Sn( 1.00)
        O              6.00    15.99900     O ( 1.00)

      4 Sym. Ops. (no inversion) found



   Cartesian axes

     site n.     atom                  positions (alat units)
         1           Sn  tau(   1) = (   0.0000000   0.0000000   0.0000000  )
         2           Sn  tau(   2) = (   0.5000000   0.5000000   0.3350000  )
         3           O   tau(   3) = (   0.8060000   0.1930000   0.3350000  )
         4           O   tau(   4) = (   0.1930000   0.8060000   0.3350000  )
         5           O   tau(   5) = (   0.3060000   0.3060000   0.0000000  )
         6           O   tau(   6) = (   0.6930000   0.6930000   0.0000000  )

     number of k points=   301

     Number of k-points >= 100: set verbosity='high' to print them.

     Dense  grid:    20675 G-vectors     FFT dimensions: (  40,  40,  27)

     Estimated max dynamical RAM per process >     170.31 MB

     Estimated total dynamical RAM >     340.63 MB

     Check: negative/imaginary core charge=   -0.000283    0.000000

     Initial potential from superposition of free atoms

     starting charge   51.99690, renormalised to   52.00000
     Starting wfc are   34 randomized atomic wfcs

     total cpu time spent up to now is       21.9 secs

     Self-consistent Calculation

     iteration #  1     ecut=    45.00 Ry     beta= 0.70
     Davidson diagonalization with overlap
     ethr =  1.00E-02,  avg # of iterations =  2.0

     total cpu time spent up to now is       74.7 secs

     total energy              =    -446.14233077 Ry
     Harris-Foulkes estimate   =    -447.07285355 Ry
     estimated scf accuracy    <       1.30866584 Ry

     iteration #  2     ecut=    45.00 Ry     beta= 0.70
     Davidson diagonalization with overlap
     ethr =  2.52E-03,  avg # of iterations =  3.0

     total cpu time spent up to now is      139.3 secs

     total energy              =    -446.46519622 Ry
     Harris-Foulkes estimate   =    -447.04892097 Ry
     estimated scf accuracy    <       1.17330369 Ry

     iteration #  3     ecut=    45.00 Ry     beta= 0.70
     Davidson diagonalization with overlap
     ethr =  2.26E-03,  avg # of iterations =  3.0

     total cpu time spent up to now is      201.1 secs

     total energy              =    -446.70486409 Ry
     Harris-Foulkes estimate   =    -446.70555868 Ry
     estimated scf accuracy    <       0.00649116 Ry

     iteration #  4     ecut=    45.00 Ry     beta= 0.70
     Davidson diagonalization with overlap
     ethr =  1.25E-05,  avg # of iterations =  2.8

     total cpu time spent up to now is      260.1 secs

     total energy              =    -446.70676092 Ry
     Harris-Foulkes estimate   =    -446.70682238 Ry
     estimated scf accuracy    <       0.00015597 Ry

     iteration #  5     ecut=    45.00 Ry     beta= 0.70
     Davidson diagonalization with overlap
     ethr =  3.00E-07,  avg # of iterations =  3.0

     total cpu time spent up to now is      322.5 secs

     total energy              =    -446.70680759 Ry
     Harris-Foulkes estimate   =    -446.70680717 Ry
     estimated scf accuracy    <       0.00000581 Ry

     iteration #  6     ecut=    45.00 Ry     beta= 0.70
     Davidson diagonalization with overlap
     ethr =  1.12E-08,  avg # of iterations =  3.6

     total cpu time spent up to now is      390.0 secs

     total energy              =    -446.70685716 Ry
     Harris-Foulkes estimate   =    -446.70685955 Ry
     estimated scf accuracy    <       0.00000603 Ry

     iteration #  7     ecut=    45.00 Ry     beta= 0.70
     Davidson diagonalization with overlap
     ethr =  1.12E-08,  avg # of iterations =  3.2

     total cpu time spent up to now is      445.6 secs

     total energy              =    -446.70685850 Ry
     Harris-Foulkes estimate   =    -446.70685867 Ry
     estimated scf accuracy    <       0.00000048 Ry

     iteration #  8     ecut=    45.00 Ry     beta= 0.70
     Davidson diagonalization with overlap
     ethr =  9.28E-10,  avg # of iterations =  2.7

     total cpu time spent up to now is      496.9 secs

     total energy              =    -446.70685858 Ry
     Harris-Foulkes estimate   =    -446.70685858 Ry
     estimated scf accuracy    <       0.00000002 Ry

     iteration #  9     ecut=    45.00 Ry     beta= 0.70
     Davidson diagonalization with overlap
     ethr =  3.40E-11,  avg # of iterations =  3.1

     total cpu time spent up to now is      564.0 secs

     total energy              =    -446.70685858 Ry
     Harris-Foulkes estimate   =    -446.70685859 Ry
     estimated scf accuracy    <       0.00000001 Ry

     iteration # 10     ecut=    45.00 Ry     beta= 0.70
     Davidson diagonalization with overlap
     ethr =  2.46E-11,  avg # of iterations =  3.0

     total cpu time spent up to now is      616.4 secs

     total energy              =    -446.70685858 Ry
     Harris-Foulkes estimate   =    -446.70685858 Ry
     estimated scf accuracy    <          1.5E-09 Ry

     iteration # 11     ecut=    45.00 Ry     beta= 0.70
     Davidson diagonalization with overlap
     ethr =  2.79E-12,  avg # of iterations =  2.7

     total cpu time spent up to now is      674.5 secs

     total energy              =    -446.70685858 Ry
     Harris-Foulkes estimate   =    -446.70685858 Ry
     estimated scf accuracy    <          1.9E-11 Ry

     iteration # 12     ecut=    45.00 Ry     beta= 0.70
     Davidson diagonalization with overlap
     ethr =  1.00E-13,  avg # of iterations =  2.6

     total cpu time spent up to now is      732.2 secs

     total energy              =    -446.70685858 Ry
     Harris-Foulkes estimate   =    -446.70685858 Ry
     estimated scf accuracy    <          1.8E-12 Ry

     iteration # 13     ecut=    45.00 Ry     beta= 0.70
     Davidson diagonalization with overlap
     ethr =  1.00E-13,  avg # of iterations =  1.0

     total cpu time spent up to now is      774.5 secs

     End of self-consistent calculation

     Number of k-points >= 100: set verbosity='high' to print the bands.

     highest occupied level (ev):     9.1362

!    total energy              =    -446.70685858 Ry
     Harris-Foulkes estimate   =    -446.70685858 Ry
     estimated scf accuracy    <          2.9E-13 Ry

     The total energy is the sum of the following terms:

     one-electron contribution =    -122.50215860 Ry
     hartree contribution      =     100.07002953 Ry
     xc contribution           =    -121.79339370 Ry
     ewald contribution        =    -302.48133581 Ry

     convergence has been achieved in  13 iterations

     Writing output data file SnO2.save
 
     init_run     :     20.86s CPU     21.62s WALL (       1 calls)
     electrons    :    735.55s CPU    752.63s WALL (       1 calls)

     Called by init_run:
     wfcinit      :     20.53s CPU     21.28s WALL (       1 calls)
     potinit      :      0.07s CPU      0.08s WALL (       1 calls)
     hinit0       :      0.18s CPU      0.18s WALL (       1 calls)

     Called by electrons:
     c_bands      :    660.37s CPU    675.77s WALL (      13 calls)
     sum_band     :     74.80s CPU     76.46s WALL (      13 calls)
     v_of_rho     :      0.31s CPU      0.31s WALL (      14 calls)
     mix_rho      :      0.08s CPU      0.09s WALL (      13 calls)

     Called by c_bands:
     init_us_2    :     12.17s CPU     12.97s WALL (    8127 calls)
     cegterg      :    594.04s CPU    607.86s WALL (    3913 calls)

     Called by sum_band:

     Called by *egterg:
     h_psi        :    475.72s CPU    486.86s WALL (   15010 calls)
     g_psi        :      4.01s CPU      4.03s WALL (   10796 calls)
     cdiaghg      :     37.68s CPU     36.39s WALL (   14709 calls)

     Called by h_psi:
     h_psi:pot    :    471.96s CPU    482.18s WALL (   15010 calls)
     h_psi:calbec :     48.46s CPU     46.21s WALL (   15010 calls)
     vloc_psi     :    391.43s CPU    397.40s WALL (   15010 calls)
     add_vuspsi   :     32.00s CPU     38.44s WALL (   15010 calls)

     General routines
     calbec       :     48.44s CPU     46.16s WALL (   15010 calls)
     fft          :      0.15s CPU      0.17s WALL (     141 calls)
     ffts         :      0.02s CPU      0.01s WALL (      13 calls)
     fftw         :    437.24s CPU    430.13s WALL (  668294 calls)
 
     Parallel routines
     fft_scatt_xy :     17.51s CPU     30.27s WALL (  668448 calls)
     fft_scatt_yz :    223.99s CPU     83.51s WALL (  668448 calls)
 
     PWSCF        : 12m37.48s CPU    13m 0.85s WALL

 
   This run was terminated on:  18:42:10  21Apr2018            

=------------------------------------------------------------------------------=
   JOB DONE.
=------------------------------------------------------------------------------=
