
     Program PWSCF v.6.2.2 starts on  7Apr2018 at 23:41:13 

     This program is part of the open-source Quantum ESPRESSO suite
     for quantum simulation of materials; please cite
         "P. Giannozzi et al., J. Phys.:Condens. Matter 21 395502 (2009);
         "P. Giannozzi et al., J. Phys.:Condens. Matter 29 465901 (2017);
          URL http://www.quantum-espresso.org", 
     in publications or presentations arising from this work. More details at
     http://www.quantum-espresso.org/quote

     Parallel version (MPI), running on     2 processors

     MPI processes distributed on     1 nodes
     R & G space division:  proc/nbgrp/npool/nimage =       2
     Reading input from Conv_etot-ecut.in
Warning: card &IONS ignored
Warning: card / ignored
Warning: card &CELL ignored
Warning: card / ignored

     Current dimensions of program PWSCF are:
     Max number of different atomic species (ntypx) = 10
     Max number of k-points (npk) =  40000
     Max angular momentum in pseudopotentials (lmaxx) =  3

     Subspace diagonalization in iterative solution of the eigenvalue problem:
     a serial algorithm will be used

 
     Parallelization info
     --------------------
     sticks:   dense  smooth     PW     G-vecs:    dense   smooth      PW
     Min         106     106     44                  782      782     191
     Max         107     107     45                  785      785     192
     Sum         213     213     89                 1567     1567     383
 


     bravais-lattice index     =            6
     lattice parameter (alat)  =       9.1100  a.u.
     unit-cell volume          =     506.5589 (a.u.)^3
     number of atoms/cell      =            6
     number of atomic types    =            2
     number of electrons       =        52.00
     number of Kohn-Sham states=           26
     kinetic-energy cutoff     =       8.0000  Ry
     charge density cutoff     =      32.0000  Ry
     convergence threshold     =      1.0E-12
     mixing beta               =       0.7000
     number of iterations used =            8  plain     mixing
     Exchange-correlation      = PBE ( 1  4  3  4 0 0)

     celldm(1)=   9.110000  celldm(2)=   0.000000  celldm(3)=   0.670000
     celldm(4)=   0.000000  celldm(5)=   0.000000  celldm(6)=   0.000000

     crystal axes: (cart. coord. in units of alat)
               a(1) = (   1.000000   0.000000   0.000000 )  
               a(2) = (   0.000000   1.000000   0.000000 )  
               a(3) = (   0.000000   0.000000   0.670000 )  

     reciprocal axes: (cart. coord. in units 2 pi/alat)
               b(1) = (  1.000000  0.000000  0.000000 )  
               b(2) = (  0.000000  1.000000  0.000000 )  
               b(3) = (  0.000000  0.000000  1.492537 )  


     PseudoPot. # 1 for Sn read from file:
     ../../Pseudo_potentials/Sn_PBE.upf
     MD5 check sum: 78e6386ae56e929f0568ae8bf606a80c
     Pseudo is Norm-conserving + core correction, Zval = 14.0
     Generated using ONCVPSP code by D. R. Hamann
     Using radial grid of 1628 points,  6 beta functions with: 
                l(1) =   0
                l(2) =   0
                l(3) =   1
                l(4) =   1
                l(5) =   2
                l(6) =   2

     PseudoPot. # 2 for O  read from file:
     ../../Pseudo_potentials/O_PBE.upf
     MD5 check sum: 3e3f909f7470e8921608ab6b1f57bbae
     Pseudo is Norm-conserving + core correction, Zval =  6.0
     Generated using ONCVPSP code by D. R. Hamann
     Using radial grid of  936 points,  5 beta functions with: 
                l(1) =   0
                l(2) =   0
                l(3) =   1
                l(4) =   1
                l(5) =   2

     atomic species   valence    mass     pseudopotential
        Sn            14.00   118.71000     Sn( 1.00)
        O              6.00    15.99900     O ( 1.00)

      4 Sym. Ops. (no inversion) found



   Cartesian axes

     site n.     atom                  positions (alat units)
         1           Sn  tau(   1) = (   0.0000000   0.0000000   0.0000000  )
         2           Sn  tau(   2) = (   0.5000000   0.5000000   0.3350000  )
         3           O   tau(   3) = (   0.8060000   0.1930000   0.3350000  )
         4           O   tau(   4) = (   0.1930000   0.8060000   0.3350000  )
         5           O   tau(   5) = (   0.3060000   0.3060000   0.0000000  )
         6           O   tau(   6) = (   0.6930000   0.6930000   0.0000000  )

     number of k points=   186

     Number of k-points >= 100: set verbosity='high' to print them.

     Dense  grid:     1567 G-vectors     FFT dimensions: (  18,  18,  12)

     Estimated max dynamical RAM per process >       9.97 MB

     Estimated total dynamical RAM >      19.94 MB

     Check: negative/imaginary core charge=   -0.008936    0.000000

     Initial potential from superposition of free atoms
     Check: negative starting charge=   -0.219827

     starting charge   51.99690, renormalised to   52.00000

     negative rho (up, down):  2.198E-01 0.000E+00
     Starting wfc are   34 randomized atomic wfcs

     total cpu time spent up to now is        1.9 secs

     Self-consistent Calculation

     iteration #  1     ecut=     8.00 Ry     beta= 0.70
     Davidson diagonalization with overlap
     ethr =  1.00E-02,  avg # of iterations =  4.0

     total cpu time spent up to now is        9.5 secs

     total energy              =    -351.40785829 Ry
     Harris-Foulkes estimate   =    -395.89882856 Ry
     estimated scf accuracy    <      57.08898346 Ry

     iteration #  2     ecut=     8.00 Ry     beta= 0.70
     Davidson diagonalization with overlap
     ethr =  1.00E-02,  avg # of iterations =  4.1

     total cpu time spent up to now is       18.4 secs

     total energy              =    -360.22695726 Ry
     Harris-Foulkes estimate   =    -368.09148214 Ry
     estimated scf accuracy    <      12.74530311 Ry

     iteration #  3     ecut=     8.00 Ry     beta= 0.70
     Davidson diagonalization with overlap
     ethr =  1.00E-02,  avg # of iterations =  3.9

     total cpu time spent up to now is       25.9 secs

     total energy              =    -362.70640992 Ry
     Harris-Foulkes estimate   =    -363.49233832 Ry
     estimated scf accuracy    <       1.17349647 Ry

     iteration #  4     ecut=     8.00 Ry     beta= 0.70
     Davidson diagonalization with overlap
     ethr =  2.26E-03,  avg # of iterations =  2.2

     total cpu time spent up to now is       30.5 secs

     total energy              =    -362.92465509 Ry
     Harris-Foulkes estimate   =    -362.94646831 Ry
     estimated scf accuracy    <       0.04164310 Ry

     iteration #  5     ecut=     8.00 Ry     beta= 0.70
     Davidson diagonalization with overlap
     ethr =  8.01E-05,  avg # of iterations =  3.3

     total cpu time spent up to now is       36.1 secs

     total energy              =    -362.93259453 Ry
     Harris-Foulkes estimate   =    -362.93548367 Ry
     estimated scf accuracy    <       0.00395766 Ry

     iteration #  6     ecut=     8.00 Ry     beta= 0.70
     Davidson diagonalization with overlap
     ethr =  7.61E-06,  avg # of iterations =  4.0

     total cpu time spent up to now is       43.6 secs

     total energy              =    -362.93253325 Ry
     Harris-Foulkes estimate   =    -362.93757813 Ry
     estimated scf accuracy    <       0.01643006 Ry

     iteration #  7     ecut=     8.00 Ry     beta= 0.70
     Davidson diagonalization with overlap
     ethr =  7.61E-06,  avg # of iterations =  3.6

     total cpu time spent up to now is       50.1 secs

     total energy              =    -362.93478592 Ry
     Harris-Foulkes estimate   =    -362.93485679 Ry
     estimated scf accuracy    <       0.00008565 Ry

     iteration #  8     ecut=     8.00 Ry     beta= 0.70
     Davidson diagonalization with overlap
     ethr =  1.65E-07,  avg # of iterations =  3.9

     total cpu time spent up to now is       56.9 secs

     total energy              =    -362.93478936 Ry
     Harris-Foulkes estimate   =    -362.93483481 Ry
     estimated scf accuracy    <       0.00008453 Ry

     iteration #  9     ecut=     8.00 Ry     beta= 0.70
     Davidson diagonalization with overlap
     ethr =  1.63E-07,  avg # of iterations =  3.5

     total cpu time spent up to now is       62.5 secs

     total energy              =    -362.93479873 Ry
     Harris-Foulkes estimate   =    -362.93480727 Ry
     estimated scf accuracy    <       0.00000286 Ry

     iteration # 10     ecut=     8.00 Ry     beta= 0.70
     Davidson diagonalization with overlap
     ethr =  5.50E-09,  avg # of iterations =  3.8

     total cpu time spent up to now is       68.9 secs

     total energy              =    -362.93479830 Ry
     Harris-Foulkes estimate   =    -362.93479974 Ry
     estimated scf accuracy    <       0.00000108 Ry

     iteration # 11     ecut=     8.00 Ry     beta= 0.70
     Davidson diagonalization with overlap
     ethr =  2.08E-09,  avg # of iterations =  3.2

     total cpu time spent up to now is       74.3 secs

     total energy              =    -362.93479812 Ry
     Harris-Foulkes estimate   =    -362.93479853 Ry
     estimated scf accuracy    <       0.00000004 Ry

     iteration # 12     ecut=     8.00 Ry     beta= 0.70
     Davidson diagonalization with overlap
     ethr =  6.98E-11,  avg # of iterations =  3.7

     total cpu time spent up to now is       80.3 secs

     total energy              =    -362.93479809 Ry
     Harris-Foulkes estimate   =    -362.93479813 Ry
     estimated scf accuracy    <          2.9E-09 Ry

     iteration # 13     ecut=     8.00 Ry     beta= 0.70
     Davidson diagonalization with overlap
     ethr =  5.67E-12,  avg # of iterations =  3.8

     total cpu time spent up to now is       86.9 secs

     total energy              =    -362.93479809 Ry
     Harris-Foulkes estimate   =    -362.93479809 Ry
     estimated scf accuracy    <          6.8E-10 Ry

     iteration # 14     ecut=     8.00 Ry     beta= 0.70
     Davidson diagonalization with overlap
     ethr =  1.32E-12,  avg # of iterations =  3.9

     total cpu time spent up to now is       93.7 secs

     total energy              =    -362.93479810 Ry
     Harris-Foulkes estimate   =    -362.93479809 Ry
     estimated scf accuracy    <          1.2E-10 Ry

     iteration # 15     ecut=     8.00 Ry     beta= 0.70
     Davidson diagonalization with overlap
     ethr =  2.32E-13,  avg # of iterations =  3.9

     total cpu time spent up to now is      100.7 secs

     total energy              =    -362.93479810 Ry
     Harris-Foulkes estimate   =    -362.93479810 Ry
     estimated scf accuracy    <          1.1E-11 Ry

     iteration # 16     ecut=     8.00 Ry     beta= 0.70
     Davidson diagonalization with overlap
     ethr =  1.00E-13,  avg # of iterations =  2.9

     total cpu time spent up to now is      105.8 secs

     End of self-consistent calculation

     Number of k-points >= 100: set verbosity='high' to print the bands.

     highest occupied level (ev):    17.1813

!    total energy              =    -362.93479810 Ry
     Harris-Foulkes estimate   =    -362.93479810 Ry
     estimated scf accuracy    <          4.9E-13 Ry

     The total energy is the sum of the following terms:

     one-electron contribution =       1.18640729 Ry
     hartree contribution      =      40.97269443 Ry
     xc contribution           =    -102.61256388 Ry
     ewald contribution        =    -302.48133594 Ry

     convergence has been achieved in  16 iterations

     Writing output data file SnO2.save
 
     init_run     :      1.42s CPU      1.49s WALL (       1 calls)
     electrons    :     99.93s CPU    104.02s WALL (       1 calls)

     Called by init_run:
     wfcinit      :      1.38s CPU      1.45s WALL (       1 calls)
     potinit      :      0.01s CPU      0.01s WALL (       1 calls)
     hinit0       :      0.03s CPU      0.04s WALL (       1 calls)

     Called by electrons:
     c_bands      :     95.01s CPU     98.35s WALL (      16 calls)
     sum_band     :      4.87s CPU      5.53s WALL (      16 calls)
     v_of_rho     :      0.04s CPU      0.04s WALL (      17 calls)
     mix_rho      :      0.01s CPU      0.01s WALL (      16 calls)

     Called by c_bands:
     init_us_2    :      0.18s CPU      0.59s WALL (    6138 calls)
     cegterg      :     92.41s CPU     94.86s WALL (    2976 calls)

     Called by sum_band:

     Called by *egterg:
     h_psi        :     36.52s CPU     39.62s WALL (   13888 calls)
     g_psi        :      0.04s CPU      0.22s WALL (   10726 calls)
     cdiaghg      :     48.51s CPU     48.23s WALL (   13702 calls)

     Called by h_psi:
     h_psi:pot    :     36.47s CPU     39.47s WALL (   13888 calls)
     h_psi:calbec :      3.14s CPU      3.18s WALL (   13888 calls)
     vloc_psi     :     32.65s CPU     32.53s WALL (   13888 calls)
     add_vuspsi   :      0.67s CPU      3.69s WALL (   13888 calls)

     General routines
     calbec       :      3.14s CPU      3.15s WALL (   13888 calls)
     fft          :      0.02s CPU      0.01s WALL (     171 calls)
     ffts         :      0.00s CPU      0.00s WALL (      16 calls)
     fftw         :     37.35s CPU     34.78s WALL (  560424 calls)
 
     Parallel routines
     fft_scatt_xy :      0.17s CPU      3.50s WALL (  560611 calls)
     fft_scatt_yz :     35.91s CPU      8.94s WALL (  560611 calls)
 
     PWSCF        :  1m41.94s CPU     1m46.88s WALL

 
   This run was terminated on:  23:43: 0   7Apr2018            

=------------------------------------------------------------------------------=
   JOB DONE.
=------------------------------------------------------------------------------=
