
     Program PWSCF v.6.2.2 starts on  7Apr2018 at 23:51:38 

     This program is part of the open-source Quantum ESPRESSO suite
     for quantum simulation of materials; please cite
         "P. Giannozzi et al., J. Phys.:Condens. Matter 21 395502 (2009);
         "P. Giannozzi et al., J. Phys.:Condens. Matter 29 465901 (2017);
          URL http://www.quantum-espresso.org", 
     in publications or presentations arising from this work. More details at
     http://www.quantum-espresso.org/quote

     Parallel version (MPI), running on     2 processors

     MPI processes distributed on     1 nodes
     R & G space division:  proc/nbgrp/npool/nimage =       2
     Reading input from Conv_etot-ecut.in
Warning: card &IONS ignored
Warning: card / ignored
Warning: card &CELL ignored
Warning: card / ignored

     Current dimensions of program PWSCF are:
     Max number of different atomic species (ntypx) = 10
     Max number of k-points (npk) =  40000
     Max angular momentum in pseudopotentials (lmaxx) =  3

     Subspace diagonalization in iterative solution of the eigenvalue problem:
     a serial algorithm will be used

 
     Parallelization info
     --------------------
     sticks:   dense  smooth     PW     G-vecs:    dense   smooth      PW
     Min         240     240     80                 2612     2612     508
     Max         241     241     81                 2613     2613     509
     Sum         481     481    161                 5225     5225    1017
 


     bravais-lattice index     =            6
     lattice parameter (alat)  =       9.1100  a.u.
     unit-cell volume          =     506.5589 (a.u.)^3
     number of atoms/cell      =            6
     number of atomic types    =            2
     number of electrons       =        52.00
     number of Kohn-Sham states=           26
     kinetic-energy cutoff     =      18.0000  Ry
     charge density cutoff     =      72.0000  Ry
     convergence threshold     =      1.0E-12
     mixing beta               =       0.7000
     number of iterations used =            8  plain     mixing
     Exchange-correlation      = PBE ( 1  4  3  4 0 0)

     celldm(1)=   9.110000  celldm(2)=   0.000000  celldm(3)=   0.670000
     celldm(4)=   0.000000  celldm(5)=   0.000000  celldm(6)=   0.000000

     crystal axes: (cart. coord. in units of alat)
               a(1) = (   1.000000   0.000000   0.000000 )  
               a(2) = (   0.000000   1.000000   0.000000 )  
               a(3) = (   0.000000   0.000000   0.670000 )  

     reciprocal axes: (cart. coord. in units 2 pi/alat)
               b(1) = (  1.000000  0.000000  0.000000 )  
               b(2) = (  0.000000  1.000000  0.000000 )  
               b(3) = (  0.000000  0.000000  1.492537 )  


     PseudoPot. # 1 for Sn read from file:
     ../../Pseudo_potentials/Sn_PBE.upf
     MD5 check sum: 78e6386ae56e929f0568ae8bf606a80c
     Pseudo is Norm-conserving + core correction, Zval = 14.0
     Generated using ONCVPSP code by D. R. Hamann
     Using radial grid of 1628 points,  6 beta functions with: 
                l(1) =   0
                l(2) =   0
                l(3) =   1
                l(4) =   1
                l(5) =   2
                l(6) =   2

     PseudoPot. # 2 for O  read from file:
     ../../Pseudo_potentials/O_PBE.upf
     MD5 check sum: 3e3f909f7470e8921608ab6b1f57bbae
     Pseudo is Norm-conserving + core correction, Zval =  6.0
     Generated using ONCVPSP code by D. R. Hamann
     Using radial grid of  936 points,  5 beta functions with: 
                l(1) =   0
                l(2) =   0
                l(3) =   1
                l(4) =   1
                l(5) =   2

     atomic species   valence    mass     pseudopotential
        Sn            14.00   118.71000     Sn( 1.00)
        O              6.00    15.99900     O ( 1.00)

      4 Sym. Ops. (no inversion) found



   Cartesian axes

     site n.     atom                  positions (alat units)
         1           Sn  tau(   1) = (   0.0000000   0.0000000   0.0000000  )
         2           Sn  tau(   2) = (   0.5000000   0.5000000   0.3350000  )
         3           O   tau(   3) = (   0.8060000   0.1930000   0.3350000  )
         4           O   tau(   4) = (   0.1930000   0.8060000   0.3350000  )
         5           O   tau(   5) = (   0.3060000   0.3060000   0.0000000  )
         6           O   tau(   6) = (   0.6930000   0.6930000   0.0000000  )

     number of k points=   186

     Number of k-points >= 100: set verbosity='high' to print them.

     Dense  grid:     5225 G-vectors     FFT dimensions: (  25,  25,  18)

     Estimated max dynamical RAM per process >      29.72 MB

     Estimated total dynamical RAM >      59.43 MB

     Check: negative/imaginary core charge=   -0.004326    0.000000

     Initial potential from superposition of free atoms
     Check: negative starting charge=   -0.019835

     starting charge   51.99690, renormalised to   52.00000

     negative rho (up, down):  1.984E-02 0.000E+00
     Starting wfc are   34 randomized atomic wfcs

     total cpu time spent up to now is        3.8 secs

     Self-consistent Calculation

     iteration #  1     ecut=    18.00 Ry     beta= 0.70
     Davidson diagonalization with overlap
     ethr =  1.00E-02,  avg # of iterations =  2.0

     negative rho (up, down):  5.928E-03 0.000E+00

     total cpu time spent up to now is       13.7 secs

     total energy              =    -408.33801737 Ry
     Harris-Foulkes estimate   =    -418.94366593 Ry
     estimated scf accuracy    <      14.05350012 Ry

     iteration #  2     ecut=    18.00 Ry     beta= 0.70
     Davidson diagonalization with overlap
     ethr =  1.00E-02,  avg # of iterations =  2.8

     negative rho (up, down):  1.825E-03 0.000E+00

     total cpu time spent up to now is       24.7 secs

     total energy              =    -411.01559665 Ry
     Harris-Foulkes estimate   =    -411.58459274 Ry
     estimated scf accuracy    <       0.98862329 Ry

     iteration #  3     ecut=    18.00 Ry     beta= 0.70
     Davidson diagonalization with overlap
     ethr =  1.90E-03,  avg # of iterations =  3.2

     negative rho (up, down):  3.880E-04 0.000E+00

     total cpu time spent up to now is       34.8 secs

     total energy              =    -411.17052868 Ry
     Harris-Foulkes estimate   =    -411.26130354 Ry
     estimated scf accuracy    <       0.16500991 Ry

     iteration #  4     ecut=    18.00 Ry     beta= 0.70
     Davidson diagonalization with overlap
     ethr =  3.17E-04,  avg # of iterations =  3.0

     total cpu time spent up to now is       45.2 secs

     total energy              =    -411.20682867 Ry
     Harris-Foulkes estimate   =    -411.21834510 Ry
     estimated scf accuracy    <       0.02196825 Ry

     iteration #  5     ecut=    18.00 Ry     beta= 0.70
     Davidson diagonalization with overlap
     ethr =  4.22E-05,  avg # of iterations =  2.4

     total cpu time spent up to now is       54.6 secs

     total energy              =    -411.21269625 Ry
     Harris-Foulkes estimate   =    -411.21290541 Ry
     estimated scf accuracy    <       0.00053313 Ry

     iteration #  6     ecut=    18.00 Ry     beta= 0.70
     Davidson diagonalization with overlap
     ethr =  1.03E-06,  avg # of iterations =  3.9

     total cpu time spent up to now is       66.3 secs

     total energy              =    -411.21290824 Ry
     Harris-Foulkes estimate   =    -411.21313553 Ry
     estimated scf accuracy    <       0.00055045 Ry

     iteration #  7     ecut=    18.00 Ry     beta= 0.70
     Davidson diagonalization with overlap
     ethr =  1.03E-06,  avg # of iterations =  3.3

     total cpu time spent up to now is       76.3 secs

     total energy              =    -411.21301782 Ry
     Harris-Foulkes estimate   =    -411.21303017 Ry
     estimated scf accuracy    <       0.00002960 Ry

     iteration #  8     ecut=    18.00 Ry     beta= 0.70
     Davidson diagonalization with overlap
     ethr =  5.69E-08,  avg # of iterations =  3.5

     total cpu time spent up to now is       86.9 secs

     total energy              =    -411.21302244 Ry
     Harris-Foulkes estimate   =    -411.21302843 Ry
     estimated scf accuracy    <       0.00001614 Ry

     iteration #  9     ecut=    18.00 Ry     beta= 0.70
     Davidson diagonalization with overlap
     ethr =  3.10E-08,  avg # of iterations =  3.1

     total cpu time spent up to now is       96.3 secs

     total energy              =    -411.21302500 Ry
     Harris-Foulkes estimate   =    -411.21302509 Ry
     estimated scf accuracy    <       0.00000012 Ry

     iteration # 10     ecut=    18.00 Ry     beta= 0.70
     Davidson diagonalization with overlap
     ethr =  2.26E-10,  avg # of iterations =  4.0

     total cpu time spent up to now is      109.2 secs

     total energy              =    -411.21302506 Ry
     Harris-Foulkes estimate   =    -411.21302507 Ry
     estimated scf accuracy    <       0.00000001 Ry

     iteration # 11     ecut=    18.00 Ry     beta= 0.70
     Davidson diagonalization with overlap
     ethr =  2.50E-11,  avg # of iterations =  3.1

     total cpu time spent up to now is      120.2 secs

     total energy              =    -411.21302506 Ry
     Harris-Foulkes estimate   =    -411.21302506 Ry
     estimated scf accuracy    <          2.8E-09 Ry

     iteration # 12     ecut=    18.00 Ry     beta= 0.70
     Davidson diagonalization with overlap
     ethr =  5.41E-12,  avg # of iterations =  3.1

     total cpu time spent up to now is      130.9 secs

     total energy              =    -411.21302506 Ry
     Harris-Foulkes estimate   =    -411.21302506 Ry
     estimated scf accuracy    <          6.2E-11 Ry

     iteration # 13     ecut=    18.00 Ry     beta= 0.70
     Davidson diagonalization with overlap
     ethr =  1.19E-13,  avg # of iterations =  3.1

     total cpu time spent up to now is      141.9 secs

     total energy              =    -411.21302506 Ry
     Harris-Foulkes estimate   =    -411.21302506 Ry
     estimated scf accuracy    <          1.3E-11 Ry

     iteration # 14     ecut=    18.00 Ry     beta= 0.70
     Davidson diagonalization with overlap
     ethr =  1.00E-13,  avg # of iterations =  1.7

     total cpu time spent up to now is      149.2 secs

     total energy              =    -411.21302506 Ry
     Harris-Foulkes estimate   =    -411.21302506 Ry
     estimated scf accuracy    <          1.9E-12 Ry

     iteration # 15     ecut=    18.00 Ry     beta= 0.70
     Davidson diagonalization with overlap
     ethr =  1.00E-13,  avg # of iterations =  1.1

     total cpu time spent up to now is      155.9 secs

     End of self-consistent calculation

     Number of k-points >= 100: set verbosity='high' to print the bands.

     highest occupied level (ev):    10.9184

!    total energy              =    -411.21302506 Ry
     Harris-Foulkes estimate   =    -411.21302506 Ry
     estimated scf accuracy    <          4.1E-14 Ry

     The total energy is the sum of the following terms:

     one-electron contribution =     -68.53862254 Ry
     hartree contribution      =      71.81712237 Ry
     xc contribution           =    -112.01018908 Ry
     ewald contribution        =    -302.48133581 Ry

     convergence has been achieved in  15 iterations

     Writing output data file SnO2.save
 
     init_run     :      3.31s CPU      3.41s WALL (       1 calls)
     electrons    :    147.59s CPU    152.08s WALL (       1 calls)

     Called by init_run:
     wfcinit      :      3.21s CPU      3.30s WALL (       1 calls)
     potinit      :      0.02s CPU      0.02s WALL (       1 calls)
     hinit0       :      0.07s CPU      0.08s WALL (       1 calls)

     Called by electrons:
     c_bands      :    135.40s CPU    139.38s WALL (      15 calls)
     sum_band     :     12.05s CPU     12.56s WALL (      15 calls)
     v_of_rho     :      0.11s CPU      0.11s WALL (      16 calls)
     mix_rho      :      0.03s CPU      0.03s WALL (      15 calls)

     Called by c_bands:
     init_us_2    :      1.23s CPU      1.75s WALL (    5766 calls)
     cegterg      :    125.18s CPU    128.97s WALL (    2790 calls)

     Called by sum_band:

     Called by *egterg:
     h_psi        :     77.51s CPU     82.46s WALL (   11038 calls)
     g_psi        :      0.40s CPU      0.54s WALL (    8062 calls)
     cdiaghg      :     31.83s CPU     31.44s WALL (   10852 calls)

     Called by h_psi:
     h_psi:pot    :     77.22s CPU     82.05s WALL (   11038 calls)
     h_psi:calbec :      8.26s CPU      7.85s WALL (   11038 calls)
     vloc_psi     :     64.27s CPU     65.25s WALL (   11038 calls)
     add_vuspsi   :      4.68s CPU      8.89s WALL (   11038 calls)

     General routines
     calbec       :      8.25s CPU      7.82s WALL (   11038 calls)
     fft          :      0.05s CPU      0.05s WALL (     161 calls)
     ffts         :      0.00s CPU      0.00s WALL (      15 calls)
     fftw         :     74.97s CPU     70.69s WALL (  470236 calls)
 
     Parallel routines
     fft_scatt_xy :      0.97s CPU      7.06s WALL (  470412 calls)
     fft_scatt_yz :     66.56s CPU     14.68s WALL (  470412 calls)
 
     PWSCF        :  2m31.54s CPU     2m37.42s WALL

 
   This run was terminated on:  23:54:16   7Apr2018            

=------------------------------------------------------------------------------=
   JOB DONE.
=------------------------------------------------------------------------------=
