
     Program PHONON v.6.2.2 starts on 10Apr2018 at 13:27:11 

     This program is part of the open-source Quantum ESPRESSO suite
     for quantum simulation of materials; please cite
         "P. Giannozzi et al., J. Phys.:Condens. Matter 21 395502 (2009);
         "P. Giannozzi et al., J. Phys.:Condens. Matter 29 465901 (2017);
          URL http://www.quantum-espresso.org", 
     in publications or presentations arising from this work. More details at
     http://www.quantum-espresso.org/quote

     Parallel version (MPI), running on     2 processors

     MPI processes distributed on     1 nodes
     R & G space division:  proc/nbgrp/npool/nimage =       2

     Reading data from directory:
     ./si.save/

     IMPORTANT: XC functional enforced from input :
     Exchange-correlation      = PBE ( 1  4  3  4 0 0)
     Any further DFT definition will be discarded
     Please, verify this is what you really want

 
     Parallelization info
     --------------------
     sticks:   dense  smooth     PW     G-vecs:    dense   smooth      PW
     Min         150     150     54                 1691     1691     362
     Max         151     151     55                 1692     1692     363
     Sum         301     301    109                 3383     3383     725
 


     Dynamical matrices for ( 4, 4, 4)  uniform grid of q-points
     (   8 q-points):
       N         xq(1)         xq(2)         xq(3) 
       1   0.000000000   0.000000000   0.000000000
       2  -0.250000000   0.250000000  -0.250000000
       3   0.500000000  -0.500000000   0.500000000
       4   0.000000000   0.500000000   0.000000000
       5   0.750000000  -0.250000000   0.750000000
       6   0.500000000   0.000000000   0.500000000
       7   0.000000000  -1.000000000   0.000000000
       8  -0.500000000  -1.000000000   0.000000000

     Calculation of q =    0.0000000   0.0000000   0.0000000

     Phonon dispersions for Si                                                  

     bravais-lattice index     =            2
     lattice parameter (alat)  =      10.3463  a.u.
     unit-cell volume          =     276.8823 (a.u.)^3
     number of atoms/cell      =            2
     number of atomic types    =            1
     kinetic-energy cut-off    =      20.0000  Ry
     charge density cut-off    =      80.0000  Ry
     convergence threshold     =      1.0E-14
     beta                      =       0.7000
     number of iterations used =            4
     Exchange-correlation      = PBE ( 1  4  3  4 0 0)


     celldm(1)=   10.34630  celldm(2)=    0.00000  celldm(3)=    0.00000
     celldm(4)=    0.00000  celldm(5)=    0.00000  celldm(6)=    0.00000

     crystal axes: (cart. coord. in units of alat)
               a(1) = ( -0.5000  0.0000  0.5000 )  
               a(2) = (  0.0000  0.5000  0.5000 )  
               a(3) = ( -0.5000  0.5000  0.0000 )  

     reciprocal axes: (cart. coord. in units 2 pi/alat)
               b(1) = ( -1.0000 -1.0000  1.0000 )  
               b(2) = (  1.0000  1.0000  1.0000 )  
               b(3) = ( -1.0000  1.0000 -1.0000 )  


     Atoms inside the unit cell: 

     Cartesian axes

     site n.  atom      mass           positions (alat units)
        1     Si  28.0860   tau(    1) = (    0.00000    0.00000    0.00000  )
        2     Si  28.0860   tau(    2) = (   -0.25000    0.25000    0.25000  )

     Computing dynamical matrix for 
                    q = (   0.0000000   0.0000000   0.0000000 )
 
     49 Sym.Ops. (with q -> -q+G )


     G cutoff =  216.9204  (   1692 G-vectors)     FFT grid: ( 24, 24, 24)
     number of k points=    28

     PseudoPot. # 1 for Si read from file:
     ../../../Pseudo_potentials/Si_PBE.upf
     MD5 check sum: 8bd403cc8851335ce2e07d79feea9aec
     Pseudo is Norm-conserving + core correction, Zval =  4.0
     Generated using ONCVPSP code by D. R. Hamann
     Using radial grid of 1510 points,  6 beta functions with: 
                l(1) =   0
                l(2) =   0
                l(3) =   1
                l(4) =   1
                l(5) =   2
                l(6) =   2

     Mode symmetry, O_h (m-3m)  point group:


     Electric field:
     Dielectric constant
     Born effective charges in two ways 


     Atomic displacements:
     There are   2 irreducible representations

     Representation     1      3 modes -T_2g G_25' G_5+  To be done

     Representation     2      3 modes -T_1u G_15  G_4-  To be done



     Alpha used in Ewald sum =   0.8000
     PHONON       :     0.35s CPU         1.31s WALL


     Electric Fields Calculation

      iter #   1 total cpu time :     3.9 secs   av.it.:   6.4
      thresh= 1.000E-02 alpha_mix =  0.700 |ddv_scf|^2 =  4.544E-07

      iter #   2 total cpu time :     5.2 secs   av.it.:  10.6
      thresh= 6.741E-05 alpha_mix =  0.700 |ddv_scf|^2 =  2.748E-08

      iter #   3 total cpu time :     6.3 secs   av.it.:  10.4
      thresh= 1.658E-05 alpha_mix =  0.700 |ddv_scf|^2 =  1.497E-09

      iter #   4 total cpu time :     7.5 secs   av.it.:  10.2
      thresh= 3.870E-06 alpha_mix =  0.700 |ddv_scf|^2 =  1.051E-11

      iter #   5 total cpu time :     8.8 secs   av.it.:  10.7
      thresh= 3.242E-07 alpha_mix =  0.700 |ddv_scf|^2 =  1.035E-14

      iter #   6 total cpu time :     9.9 secs   av.it.:   9.2
      thresh= 1.018E-08 alpha_mix =  0.700 |ddv_scf|^2 =  8.034E-16

     End of electric fields calculation

          Dielectric constant in cartesian axis 

          (      13.066019272      -0.000000000      -0.000000000 )
          (      -0.000000000      13.066019272      -0.000000000 )
          (      -0.000000000      -0.000000000      13.066019272 )

          Effective charges (d Force / dE) in cartesian axis

           atom      1   Si 
      Ex  (       -0.00662       -0.00000       -0.00000 )
      Ey  (       -0.00000       -0.00662       -0.00000 )
      Ez  (        0.00000        0.00000       -0.00662 )
           atom      2   Si 
      Ex  (       -0.00662       -0.00000        0.00000 )
      Ey  (       -0.00000       -0.00662        0.00000 )
      Ez  (        0.00000        0.00000       -0.00662 )


     Representation #  1 modes #   1  2  3

     Self-consistent Calculation

      iter #   1 total cpu time :    11.7 secs   av.it.:   5.6
      thresh= 1.000E-02 alpha_mix =  0.700 |ddv_scf|^2 =  7.128E-08

      iter #   2 total cpu time :    12.9 secs   av.it.:  10.6
      thresh= 2.670E-05 alpha_mix =  0.700 |ddv_scf|^2 =  1.561E-09

      iter #   3 total cpu time :    14.1 secs   av.it.:  10.6
      thresh= 3.951E-06 alpha_mix =  0.700 |ddv_scf|^2 =  6.827E-11

      iter #   4 total cpu time :    15.4 secs   av.it.:  10.3
      thresh= 8.263E-07 alpha_mix =  0.700 |ddv_scf|^2 =  2.649E-13

      iter #   5 total cpu time :    16.6 secs   av.it.:  10.6
      thresh= 5.147E-08 alpha_mix =  0.700 |ddv_scf|^2 =  2.697E-15

     End of self-consistent calculation

     Convergence has been achieved 


     Representation #  2 modes #   4  5  6

     Self-consistent Calculation

      iter #   1 total cpu time :    17.6 secs   av.it.:   5.7
      thresh= 1.000E-02 alpha_mix =  0.700 |ddv_scf|^2 =  4.838E-08

      iter #   2 total cpu time :    18.9 secs   av.it.:  10.8
      thresh= 2.199E-05 alpha_mix =  0.700 |ddv_scf|^2 =  1.829E-09

      iter #   3 total cpu time :    20.1 secs   av.it.:  10.7
      thresh= 4.276E-06 alpha_mix =  0.700 |ddv_scf|^2 =  9.298E-11

      iter #   4 total cpu time :    21.3 secs   av.it.:  10.8
      thresh= 9.642E-07 alpha_mix =  0.700 |ddv_scf|^2 =  2.666E-13

      iter #   5 total cpu time :    22.5 secs   av.it.:  10.6
      thresh= 5.164E-08 alpha_mix =  0.700 |ddv_scf|^2 =  1.621E-15

     End of self-consistent calculation

     Convergence has been achieved 
 
     Number of q in the star =    1
     List of q in the star:
          1   0.000000000   0.000000000   0.000000000

          Dielectric constant in cartesian axis 

          (      13.066019272      -0.000000000      -0.000000000 )
          (      -0.000000000      13.066019272      -0.000000000 )
          (      -0.000000000      -0.000000000      13.066019272 )

          Effective charges (d Force / dE) in cartesian axis

           atom      1   Si 
      Ex  (       -0.00662       -0.00000       -0.00000 )
      Ey  (       -0.00000       -0.00662       -0.00000 )
      Ez  (        0.00000        0.00000       -0.00662 )
           atom      2   Si 
      Ex  (       -0.00662       -0.00000        0.00000 )
      Ey  (       -0.00000       -0.00662        0.00000 )
      Ez  (        0.00000        0.00000       -0.00662 )

          Effective charges (d P / du) in cartesian axis 

           atom      1   Si 
      Px  (       -0.00678        0.00000       -0.00000 )
      Py  (        0.00000       -0.00678       -0.00000 )
      Pz  (       -0.00000       -0.00000       -0.00678 )
           atom      2   Si 
      Px  (       -0.00678        0.00000        0.00000 )
      Py  (        0.00000       -0.00678       -0.00000 )
      Pz  (        0.00000       -0.00000       -0.00678 )

     Diagonalizing the dynamical matrix

     q = (    0.000000000   0.000000000   0.000000000 ) 

 **************************************************************************
     freq (    1) =      -0.122760 [THz] =      -4.094819 [cm-1]
     freq (    2) =      -0.122760 [THz] =      -4.094819 [cm-1]
     freq (    3) =      -0.122760 [THz] =      -4.094819 [cm-1]
     freq (    4) =      15.024720 [THz] =     501.170706 [cm-1]
     freq (    5) =      15.024720 [THz] =     501.170706 [cm-1]
     freq (    6) =      15.024720 [THz] =     501.170706 [cm-1]
 **************************************************************************

     Mode symmetry, O_h (m-3m)  point group:

     freq (  1 -  3) =         -4.1  [cm-1]   --> T_1u G_15  G_4- I  
     freq (  4 -  6) =        501.2  [cm-1]   --> T_2g G_25' G_5+ R  

     Calculation of q =   -0.2500000   0.2500000  -0.2500000
 
     Parallelization info
     --------------------
     sticks:   dense  smooth     PW     G-vecs:    dense   smooth      PW
     Min         150     150     60                 1691     1691     410
     Max         151     151     61                 1692     1692     411
     Sum         301     301    121                 3383     3383     821
 

     Title: 
     Phonon dispersions for Si                                                  


     bravais-lattice index     =            2
     lattice parameter (alat)  =      10.3463  a.u.
     unit-cell volume          =     276.8823 (a.u.)^3
     number of atoms/cell      =            2
     number of atomic types    =            1
     number of electrons       =         8.00
     number of Kohn-Sham states=            8
     kinetic-energy cutoff     =      20.0000  Ry
     charge density cutoff     =      80.0000  Ry
     Exchange-correlation      = PBE ( 1  4  3  4 0 0)

     celldm(1)=  10.346300  celldm(2)=   0.000000  celldm(3)=   0.000000
     celldm(4)=   0.000000  celldm(5)=   0.000000  celldm(6)=   0.000000

     crystal axes: (cart. coord. in units of alat)
               a(1) = (  -0.500000   0.000000   0.500000 )  
               a(2) = (   0.000000   0.500000   0.500000 )  
               a(3) = (  -0.500000   0.500000   0.000000 )  

     reciprocal axes: (cart. coord. in units 2 pi/alat)
               b(1) = ( -1.000000 -1.000000  1.000000 )  
               b(2) = (  1.000000  1.000000  1.000000 )  
               b(3) = ( -1.000000  1.000000 -1.000000 )  


     PseudoPot. # 1 for Si read from file:
     ../../../Pseudo_potentials/Si_PBE.upf
     MD5 check sum: 8bd403cc8851335ce2e07d79feea9aec
     Pseudo is Norm-conserving + core correction, Zval =  4.0
     Generated using ONCVPSP code by D. R. Hamann
     Using radial grid of 1510 points,  6 beta functions with: 
                l(1) =   0
                l(2) =   0
                l(3) =   1
                l(4) =   1
                l(5) =   2
                l(6) =   2

     atomic species   valence    mass     pseudopotential
        Si             4.00    28.08600     Si( 1.00)

     48 Sym. Ops., with inversion, found



   Cartesian axes

     site n.     atom                  positions (alat units)
         1           Si  tau(   1) = (   0.0000000   0.0000000   0.0000000  )
         2           Si  tau(   2) = (  -0.2500000   0.2500000   0.2500000  )

     number of k points=   364

     Number of k-points >= 100: set verbosity='high' to print them.

     Dense  grid:     3383 G-vectors     FFT dimensions: (  24,  24,  24)

     Estimated max dynamical RAM per process >       2.30 MB

     Estimated total dynamical RAM >       4.60 MB

     The potential is recalculated from file :
     ./_ph0/si.save/charge-density.dat

     Starting wfc are    8 atomic wfcs

     Band Structure Calculation
     Davidson diagonalization with overlap

     ethr =  1.25E-10,  avg # of iterations = 18.4

     total cpu time spent up to now is       11.8 secs

     End of band structure calculation

     Number of k-points >= 100: set verbosity='high' to print the bands.

     highest occupied, lowest unoccupied level (ev):     5.8448    6.8047

     Writing output data file si.save

     Phonon dispersions for Si                                                  

     bravais-lattice index     =            2
     lattice parameter (alat)  =      10.3463  a.u.
     unit-cell volume          =     276.8823 (a.u.)^3
     number of atoms/cell      =            2
     number of atomic types    =            1
     kinetic-energy cut-off    =      20.0000  Ry
     charge density cut-off    =      80.0000  Ry
     convergence threshold     =      1.0E-14
     beta                      =       0.7000
     number of iterations used =            4
     Exchange-correlation      = PBE ( 1  4  3  4 0 0)


     celldm(1)=   10.34630  celldm(2)=    0.00000  celldm(3)=    0.00000
     celldm(4)=    0.00000  celldm(5)=    0.00000  celldm(6)=    0.00000

     crystal axes: (cart. coord. in units of alat)
               a(1) = ( -0.5000  0.0000  0.5000 )  
               a(2) = (  0.0000  0.5000  0.5000 )  
               a(3) = ( -0.5000  0.5000  0.0000 )  

     reciprocal axes: (cart. coord. in units 2 pi/alat)
               b(1) = ( -1.0000 -1.0000  1.0000 )  
               b(2) = (  1.0000  1.0000  1.0000 )  
               b(3) = ( -1.0000  1.0000 -1.0000 )  


     Atoms inside the unit cell: 

     Cartesian axes

     site n.  atom      mass           positions (alat units)
        1     Si  28.0860   tau(    1) = (    0.00000    0.00000    0.00000  )
        2     Si  28.0860   tau(    2) = (   -0.25000    0.25000    0.25000  )

     Computing dynamical matrix for 
                    q = (  -0.2500000   0.2500000  -0.2500000 )
 
      6 Sym.Ops. (no q -> -q+G )


     G cutoff =  216.9204  (   1692 G-vectors)     FFT grid: ( 24, 24, 24)
     number of k points=   364

     PseudoPot. # 1 for Si read from file:
     ../../../Pseudo_potentials/Si_PBE.upf
     MD5 check sum: 8bd403cc8851335ce2e07d79feea9aec
     Pseudo is Norm-conserving + core correction, Zval =  4.0
     Generated using ONCVPSP code by D. R. Hamann
     Using radial grid of 1510 points,  6 beta functions with: 
                l(1) =   0
                l(2) =   0
                l(3) =   1
                l(4) =   1
                l(5) =   2
                l(6) =   2

     Mode symmetry, C_3v (3m)   point group:


     Atomic displacements:
     There are   4 irreducible representations

     Representation     1      1 modes -A_1  L_1  To be done

     Representation     2      1 modes -A_1  L_1  To be done

     Representation     3      2 modes -E    L_3  To be done

     Representation     4      2 modes -E    L_3  To be done



     Alpha used in Ewald sum =   0.8000
     PHONON       :    30.53s CPU        35.42s WALL



     Representation #  1 mode #   1

     Self-consistent Calculation

      iter #   1 total cpu time :    37.4 secs   av.it.:   6.3
      thresh= 1.000E-02 alpha_mix =  0.700 |ddv_scf|^2 =  1.435E-03

      iter #   2 total cpu time :    39.5 secs   av.it.:   8.3
      thresh= 3.788E-03 alpha_mix =  0.700 |ddv_scf|^2 =  2.204E-02

      iter #   3 total cpu time :    41.3 secs   av.it.:   6.9
      thresh= 1.000E-02 alpha_mix =  0.700 |ddv_scf|^2 =  8.408E-07

      iter #   4 total cpu time :    43.4 secs   av.it.:   8.8
      thresh= 9.169E-05 alpha_mix =  0.700 |ddv_scf|^2 =  6.971E-08

      iter #   5 total cpu time :    45.5 secs   av.it.:   8.6
      thresh= 2.640E-05 alpha_mix =  0.700 |ddv_scf|^2 =  1.473E-10

      iter #   6 total cpu time :    47.8 secs   av.it.:   9.3
      thresh= 1.213E-06 alpha_mix =  0.700 |ddv_scf|^2 =  6.971E-11

      iter #   7 total cpu time :    49.9 secs   av.it.:   8.6
      thresh= 8.349E-07 alpha_mix =  0.700 |ddv_scf|^2 =  7.160E-11

      iter #   8 total cpu time :    51.7 secs   av.it.:   6.7
      thresh= 8.461E-07 alpha_mix =  0.700 |ddv_scf|^2 =  3.409E-13

      iter #   9 total cpu time :    53.8 secs   av.it.:   8.6
      thresh= 5.839E-08 alpha_mix =  0.700 |ddv_scf|^2 =  2.015E-14

      iter #  10 total cpu time :    56.0 secs   av.it.:   9.1
      thresh= 1.419E-08 alpha_mix =  0.700 |ddv_scf|^2 =  1.143E-14

      iter #  11 total cpu time :    58.1 secs   av.it.:   8.2
      thresh= 1.069E-08 alpha_mix =  0.700 |ddv_scf|^2 =  7.063E-16

     End of self-consistent calculation

     Convergence has been achieved 


     Representation #  2 mode #   2

     Self-consistent Calculation

      iter #   1 total cpu time :    60.2 secs   av.it.:   6.3
      thresh= 1.000E-02 alpha_mix =  0.700 |ddv_scf|^2 =  1.435E-03

      iter #   2 total cpu time :    62.3 secs   av.it.:   8.3
      thresh= 3.788E-03 alpha_mix =  0.700 |ddv_scf|^2 =  2.204E-02

      iter #   3 total cpu time :    64.1 secs   av.it.:   6.9
      thresh= 1.000E-02 alpha_mix =  0.700 |ddv_scf|^2 =  8.408E-07

      iter #   4 total cpu time :    66.3 secs   av.it.:   8.8
      thresh= 9.169E-05 alpha_mix =  0.700 |ddv_scf|^2 =  6.971E-08

      iter #   5 total cpu time :    68.4 secs   av.it.:   8.6
      thresh= 2.640E-05 alpha_mix =  0.700 |ddv_scf|^2 =  1.473E-10

      iter #   6 total cpu time :    70.8 secs   av.it.:   9.3
      thresh= 1.213E-06 alpha_mix =  0.700 |ddv_scf|^2 =  6.971E-11

      iter #   7 total cpu time :    72.9 secs   av.it.:   8.6
      thresh= 8.349E-07 alpha_mix =  0.700 |ddv_scf|^2 =  7.158E-11

      iter #   8 total cpu time :    74.7 secs   av.it.:   6.7
      thresh= 8.460E-07 alpha_mix =  0.700 |ddv_scf|^2 =  3.409E-13

      iter #   9 total cpu time :    76.8 secs   av.it.:   8.6
      thresh= 5.838E-08 alpha_mix =  0.700 |ddv_scf|^2 =  2.015E-14

      iter #  10 total cpu time :    79.1 secs   av.it.:   9.1
      thresh= 1.419E-08 alpha_mix =  0.700 |ddv_scf|^2 =  1.143E-14

      iter #  11 total cpu time :    81.1 secs   av.it.:   8.2
      thresh= 1.069E-08 alpha_mix =  0.700 |ddv_scf|^2 =  7.062E-16

     End of self-consistent calculation

     Convergence has been achieved 


     Representation #  3 modes #   3  4

     Self-consistent Calculation

      iter #   1 total cpu time :    85.0 secs   av.it.:   6.0
      thresh= 1.000E-02 alpha_mix =  0.700 |ddv_scf|^2 =  2.025E-07

      iter #   2 total cpu time :    89.9 secs   av.it.:  10.5
      thresh= 4.500E-05 alpha_mix =  0.700 |ddv_scf|^2 =  1.132E-08

      iter #   3 total cpu time :    94.8 secs   av.it.:  10.2
      thresh= 1.064E-05 alpha_mix =  0.700 |ddv_scf|^2 =  2.493E-10

      iter #   4 total cpu time :    99.7 secs   av.it.:  10.4
      thresh= 1.579E-06 alpha_mix =  0.700 |ddv_scf|^2 =  2.405E-12

      iter #   5 total cpu time :   104.6 secs   av.it.:  10.4
      thresh= 1.551E-07 alpha_mix =  0.700 |ddv_scf|^2 =  8.491E-14

      iter #   6 total cpu time :   109.9 secs   av.it.:  10.5
      thresh= 2.914E-08 alpha_mix =  0.700 |ddv_scf|^2 =  9.844E-16

     End of self-consistent calculation

     Convergence has been achieved 


     Representation #  4 modes #   5  6

     Self-consistent Calculation

      iter #   1 total cpu time :   113.7 secs   av.it.:   5.9
      thresh= 1.000E-02 alpha_mix =  0.700 |ddv_scf|^2 =  2.025E-07

      iter #   2 total cpu time :   118.6 secs   av.it.:  10.4
      thresh= 4.500E-05 alpha_mix =  0.700 |ddv_scf|^2 =  1.132E-08

      iter #   3 total cpu time :   123.4 secs   av.it.:  10.2
      thresh= 1.064E-05 alpha_mix =  0.700 |ddv_scf|^2 =  2.493E-10

      iter #   4 total cpu time :   128.3 secs   av.it.:  10.3
      thresh= 1.579E-06 alpha_mix =  0.700 |ddv_scf|^2 =  2.405E-12

      iter #   5 total cpu time :   133.2 secs   av.it.:  10.3
      thresh= 1.551E-07 alpha_mix =  0.700 |ddv_scf|^2 =  8.495E-14

      iter #   6 total cpu time :   138.1 secs   av.it.:  10.4
      thresh= 2.915E-08 alpha_mix =  0.700 |ddv_scf|^2 =  9.899E-16

     End of self-consistent calculation

     Convergence has been achieved 
 
     Number of q in the star =    8
     List of q in the star:
          1  -0.250000000   0.250000000  -0.250000000
          2   0.250000000  -0.250000000  -0.250000000
          3   0.250000000  -0.250000000   0.250000000
          4   0.250000000   0.250000000   0.250000000
          5  -0.250000000  -0.250000000  -0.250000000
          6  -0.250000000  -0.250000000   0.250000000
          7  -0.250000000   0.250000000   0.250000000
          8   0.250000000   0.250000000  -0.250000000

     Diagonalizing the dynamical matrix

     q = (   -0.250000000   0.250000000  -0.250000000 ) 

 **************************************************************************
     freq (    1) =       2.834493 [THz] =      94.548509 [cm-1]
     freq (    2) =       2.834493 [THz] =      94.548509 [cm-1]
     freq (    3) =       6.719991 [THz] =     224.154767 [cm-1]
     freq (    4) =      14.160107 [THz] =     472.330328 [cm-1]
     freq (    5) =      14.452825 [THz] =     482.094344 [cm-1]
     freq (    6) =      14.452825 [THz] =     482.094344 [cm-1]
 **************************************************************************

     Mode symmetry, C_3v (3m)   point group:

     freq (  1 -  2) =         94.5  [cm-1]   --> E    L_3           
     freq (  3 -  3) =        224.2  [cm-1]   --> A_1  L_1           
     freq (  4 -  4) =        472.3  [cm-1]   --> A_1  L_1           
     freq (  5 -  6) =        482.1  [cm-1]   --> E    L_3           

     Calculation of q =    0.5000000  -0.5000000   0.5000000
 
     Parallelization info
     --------------------
     sticks:   dense  smooth     PW     G-vecs:    dense   smooth      PW
     Min         150     150     60                 1691     1691     469
     Max         151     151     61                 1692     1692     472
     Sum         301     301    121                 3383     3383     941
 

     Title: 
     Phonon dispersions for Si                                                  


     bravais-lattice index     =            2
     lattice parameter (alat)  =      10.3463  a.u.
     unit-cell volume          =     276.8823 (a.u.)^3
     number of atoms/cell      =            2
     number of atomic types    =            1
     number of electrons       =         8.00
     number of Kohn-Sham states=            8
     kinetic-energy cutoff     =      20.0000  Ry
     charge density cutoff     =      80.0000  Ry
     Exchange-correlation      = PBE ( 1  4  3  4 0 0)

     celldm(1)=  10.346300  celldm(2)=   0.000000  celldm(3)=   0.000000
     celldm(4)=   0.000000  celldm(5)=   0.000000  celldm(6)=   0.000000

     crystal axes: (cart. coord. in units of alat)
               a(1) = (  -0.500000   0.000000   0.500000 )  
               a(2) = (   0.000000   0.500000   0.500000 )  
               a(3) = (  -0.500000   0.500000   0.000000 )  

     reciprocal axes: (cart. coord. in units 2 pi/alat)
               b(1) = ( -1.000000 -1.000000  1.000000 )  
               b(2) = (  1.000000  1.000000  1.000000 )  
               b(3) = ( -1.000000  1.000000 -1.000000 )  


     PseudoPot. # 1 for Si read from file:
     ../../../Pseudo_potentials/Si_PBE.upf
     MD5 check sum: 8bd403cc8851335ce2e07d79feea9aec
     Pseudo is Norm-conserving + core correction, Zval =  4.0
     Generated using ONCVPSP code by D. R. Hamann
     Using radial grid of 1510 points,  6 beta functions with: 
                l(1) =   0
                l(2) =   0
                l(3) =   1
                l(4) =   1
                l(5) =   2
                l(6) =   2

     atomic species   valence    mass     pseudopotential
        Si             4.00    28.08600     Si( 1.00)

     48 Sym. Ops., with inversion, found



   Cartesian axes

     site n.     atom                  positions (alat units)
         1           Si  tau(   1) = (   0.0000000   0.0000000   0.0000000  )
         2           Si  tau(   2) = (  -0.2500000   0.2500000   0.2500000  )

     number of k points=   182

     Number of k-points >= 100: set verbosity='high' to print them.

     Dense  grid:     3383 G-vectors     FFT dimensions: (  24,  24,  24)

     Estimated max dynamical RAM per process >       2.33 MB

     Estimated total dynamical RAM >       4.67 MB

     The potential is recalculated from file :
     ./_ph0/si.save/charge-density.dat

     Starting wfc are    8 atomic wfcs

     Band Structure Calculation
     Davidson diagonalization with overlap

     ethr =  1.25E-10,  avg # of iterations = 19.0

     total cpu time spent up to now is       18.2 secs

     End of band structure calculation

     Number of k-points >= 100: set verbosity='high' to print the bands.

     highest occupied, lowest unoccupied level (ev):     5.8448    6.8047

     Writing output data file si.save

     Phonon dispersions for Si                                                  

     bravais-lattice index     =            2
     lattice parameter (alat)  =      10.3463  a.u.
     unit-cell volume          =     276.8823 (a.u.)^3
     number of atoms/cell      =            2
     number of atomic types    =            1
     kinetic-energy cut-off    =      20.0000  Ry
     charge density cut-off    =      80.0000  Ry
     convergence threshold     =      1.0E-14
     beta                      =       0.7000
     number of iterations used =            4
     Exchange-correlation      = PBE ( 1  4  3  4 0 0)


     celldm(1)=   10.34630  celldm(2)=    0.00000  celldm(3)=    0.00000
     celldm(4)=    0.00000  celldm(5)=    0.00000  celldm(6)=    0.00000

     crystal axes: (cart. coord. in units of alat)
               a(1) = ( -0.5000  0.0000  0.5000 )  
               a(2) = (  0.0000  0.5000  0.5000 )  
               a(3) = ( -0.5000  0.5000  0.0000 )  

     reciprocal axes: (cart. coord. in units 2 pi/alat)
               b(1) = ( -1.0000 -1.0000  1.0000 )  
               b(2) = (  1.0000  1.0000  1.0000 )  
               b(3) = ( -1.0000  1.0000 -1.0000 )  


     Atoms inside the unit cell: 

     Cartesian axes

     site n.  atom      mass           positions (alat units)
        1     Si  28.0860   tau(    1) = (    0.00000    0.00000    0.00000  )
        2     Si  28.0860   tau(    2) = (   -0.25000    0.25000    0.25000  )

     Computing dynamical matrix for 
                    q = (   0.5000000  -0.5000000   0.5000000 )
 
     13 Sym.Ops. (with q -> -q+G )


     G cutoff =  216.9204  (   1692 G-vectors)     FFT grid: ( 24, 24, 24)
     number of k points=   182

     PseudoPot. # 1 for Si read from file:
     ../../../Pseudo_potentials/Si_PBE.upf
     MD5 check sum: 8bd403cc8851335ce2e07d79feea9aec
     Pseudo is Norm-conserving + core correction, Zval =  4.0
     Generated using ONCVPSP code by D. R. Hamann
     Using radial grid of 1510 points,  6 beta functions with: 
                l(1) =   0
                l(2) =   0
                l(3) =   1
                l(4) =   1
                l(5) =   2
                l(6) =   2


     Atomic displacements:
     There are   4 irreducible representations

     Representation     1      1 modes -  To be done

     Representation     2      1 modes -  To be done

     Representation     3      2 modes -  To be done

     Representation     4      2 modes -  To be done



     Alpha used in Ewald sum =   0.8000
     PHONON       :  2m10.20s CPU     2m25.27s WALL



     Representation #  1 mode #   1

     Self-consistent Calculation

      iter #   1 total cpu time :   146.2 secs   av.it.:   5.5
      thresh= 1.000E-02 alpha_mix =  0.700 |ddv_scf|^2 =  1.353E-05

      iter #   2 total cpu time :   147.3 secs   av.it.:   8.9
      thresh= 3.678E-04 alpha_mix =  0.700 |ddv_scf|^2 =  1.222E-05

      iter #   3 total cpu time :   148.4 secs   av.it.:   8.2
      thresh= 3.496E-04 alpha_mix =  0.700 |ddv_scf|^2 =  1.903E-09

      iter #   4 total cpu time :   149.5 secs   av.it.:   9.0
      thresh= 4.362E-06 alpha_mix =  0.700 |ddv_scf|^2 =  3.508E-11

      iter #   5 total cpu time :   150.6 secs   av.it.:   8.6
      thresh= 5.923E-07 alpha_mix =  0.700 |ddv_scf|^2 =  7.336E-13

      iter #   6 total cpu time :   151.6 secs   av.it.:   8.5
      thresh= 8.565E-08 alpha_mix =  0.700 |ddv_scf|^2 =  8.488E-15

     End of self-consistent calculation

     Convergence has been achieved 


     Representation #  2 mode #   2

     Self-consistent Calculation

      iter #   1 total cpu time :   152.8 secs   av.it.:   6.4
      thresh= 1.000E-02 alpha_mix =  0.700 |ddv_scf|^2 =  2.031E-04

      iter #   2 total cpu time :   154.0 secs   av.it.:   9.0
      thresh= 1.425E-03 alpha_mix =  0.700 |ddv_scf|^2 =  6.469E-04

      iter #   3 total cpu time :   155.0 secs   av.it.:   8.0
      thresh= 2.543E-03 alpha_mix =  0.700 |ddv_scf|^2 =  4.551E-08

      iter #   4 total cpu time :   156.2 secs   av.it.:   8.8
      thresh= 2.133E-05 alpha_mix =  0.700 |ddv_scf|^2 =  1.205E-09

      iter #   5 total cpu time :   157.3 secs   av.it.:   9.1
      thresh= 3.471E-06 alpha_mix =  0.700 |ddv_scf|^2 =  1.110E-10

      iter #   6 total cpu time :   158.4 secs   av.it.:   8.7
      thresh= 1.053E-06 alpha_mix =  0.700 |ddv_scf|^2 =  2.996E-13

      iter #   7 total cpu time :   159.5 secs   av.it.:   8.6
      thresh= 5.474E-08 alpha_mix =  0.700 |ddv_scf|^2 =  6.231E-15

     End of self-consistent calculation

     Convergence has been achieved 


     Representation #  3 modes #   3  4

     Self-consistent Calculation

      iter #   1 total cpu time :   161.5 secs   av.it.:   5.8
      thresh= 1.000E-02 alpha_mix =  0.700 |ddv_scf|^2 =  4.709E-07

      iter #   2 total cpu time :   164.0 secs   av.it.:  10.3
      thresh= 6.862E-05 alpha_mix =  0.700 |ddv_scf|^2 =  3.789E-08

      iter #   3 total cpu time :   166.4 secs   av.it.:  10.1
      thresh= 1.947E-05 alpha_mix =  0.700 |ddv_scf|^2 =  3.011E-10

      iter #   4 total cpu time :   168.8 secs   av.it.:  10.1
      thresh= 1.735E-06 alpha_mix =  0.700 |ddv_scf|^2 =  5.992E-13

      iter #   5 total cpu time :   171.2 secs   av.it.:  10.1
      thresh= 7.741E-08 alpha_mix =  0.700 |ddv_scf|^2 =  1.562E-14

      iter #   6 total cpu time :   173.6 secs   av.it.:   9.8
      thresh= 1.250E-08 alpha_mix =  0.700 |ddv_scf|^2 =  1.863E-16

     End of self-consistent calculation

     Convergence has been achieved 


     Representation #  4 modes #   5  6

     Self-consistent Calculation

      iter #   1 total cpu time :   175.5 secs   av.it.:   5.3
      thresh= 1.000E-02 alpha_mix =  0.700 |ddv_scf|^2 =  5.152E-08

      iter #   2 total cpu time :   178.0 secs   av.it.:  10.2
      thresh= 2.270E-05 alpha_mix =  0.700 |ddv_scf|^2 =  1.553E-09

      iter #   3 total cpu time :   180.5 secs   av.it.:  10.0
      thresh= 3.941E-06 alpha_mix =  0.700 |ddv_scf|^2 =  9.542E-11

      iter #   4 total cpu time :   182.9 secs   av.it.:  10.2
      thresh= 9.768E-07 alpha_mix =  0.700 |ddv_scf|^2 =  5.142E-13

      iter #   5 total cpu time :   185.4 secs   av.it.:  10.0
      thresh= 7.170E-08 alpha_mix =  0.700 |ddv_scf|^2 =  1.332E-14

      iter #   6 total cpu time :   187.7 secs   av.it.:  10.1
      thresh= 1.154E-08 alpha_mix =  0.700 |ddv_scf|^2 =  6.461E-17

     End of self-consistent calculation

     Convergence has been achieved 
 
     Number of q in the star =    4
     List of q in the star:
          1   0.500000000  -0.500000000   0.500000000
          2   0.500000000   0.500000000   0.500000000
          3  -0.500000000   0.500000000   0.500000000
          4   0.500000000   0.500000000  -0.500000000

     Diagonalizing the dynamical matrix

     q = (    0.500000000  -0.500000000   0.500000000 ) 

 **************************************************************************
     freq (    1) =       3.338885 [THz] =     111.373224 [cm-1]
     freq (    2) =       3.338885 [THz] =     111.373224 [cm-1]
     freq (    3) =      11.070688 [THz] =     369.278414 [cm-1]
     freq (    4) =      11.916658 [THz] =     397.496908 [cm-1]
     freq (    5) =      14.250367 [THz] =     475.341081 [cm-1]
     freq (    6) =      14.250367 [THz] =     475.341081 [cm-1]
 **************************************************************************

     Calculation of q =    0.0000000   0.5000000   0.0000000
 
     Parallelization info
     --------------------
     sticks:   dense  smooth     PW     G-vecs:    dense   smooth      PW
     Min         150     150     60                 1691     1691     434
     Max         151     151     61                 1692     1692     435
     Sum         301     301    121                 3383     3383     869
 

     Title: 
     Phonon dispersions for Si                                                  


     bravais-lattice index     =            2
     lattice parameter (alat)  =      10.3463  a.u.
     unit-cell volume          =     276.8823 (a.u.)^3
     number of atoms/cell      =            2
     number of atomic types    =            1
     number of electrons       =         8.00
     number of Kohn-Sham states=            8
     kinetic-energy cutoff     =      20.0000  Ry
     charge density cutoff     =      80.0000  Ry
     Exchange-correlation      = PBE ( 1  4  3  4 0 0)

     celldm(1)=  10.346300  celldm(2)=   0.000000  celldm(3)=   0.000000
     celldm(4)=   0.000000  celldm(5)=   0.000000  celldm(6)=   0.000000

     crystal axes: (cart. coord. in units of alat)
               a(1) = (  -0.500000   0.000000   0.500000 )  
               a(2) = (   0.000000   0.500000   0.500000 )  
               a(3) = (  -0.500000   0.500000   0.000000 )  

     reciprocal axes: (cart. coord. in units 2 pi/alat)
               b(1) = ( -1.000000 -1.000000  1.000000 )  
               b(2) = (  1.000000  1.000000  1.000000 )  
               b(3) = ( -1.000000  1.000000 -1.000000 )  


     PseudoPot. # 1 for Si read from file:
     ../../../Pseudo_potentials/Si_PBE.upf
     MD5 check sum: 8bd403cc8851335ce2e07d79feea9aec
     Pseudo is Norm-conserving + core correction, Zval =  4.0
     Generated using ONCVPSP code by D. R. Hamann
     Using radial grid of 1510 points,  6 beta functions with: 
                l(1) =   0
                l(2) =   0
                l(3) =   1
                l(4) =   1
                l(5) =   2
                l(6) =   2

     atomic species   valence    mass     pseudopotential
        Si             4.00    28.08600     Si( 1.00)

     48 Sym. Ops., with inversion, found



   Cartesian axes

     site n.     atom                  positions (alat units)
         1           Si  tau(   1) = (   0.0000000   0.0000000   0.0000000  )
         2           Si  tau(   2) = (  -0.2500000   0.2500000   0.2500000  )

     number of k points=   252

     Number of k-points >= 100: set verbosity='high' to print them.

     Dense  grid:     3383 G-vectors     FFT dimensions: (  24,  24,  24)

     Estimated max dynamical RAM per process >       2.31 MB

     Estimated total dynamical RAM >       4.61 MB

     The potential is recalculated from file :
     ./_ph0/si.save/charge-density.dat

     Starting wfc are    8 atomic wfcs

     Band Structure Calculation
     Davidson diagonalization with overlap

     ethr =  1.25E-10,  avg # of iterations = 19.1

     total cpu time spent up to now is       26.8 secs

     End of band structure calculation

     Number of k-points >= 100: set verbosity='high' to print the bands.

     highest occupied, lowest unoccupied level (ev):     5.8448    6.8047

     Writing output data file si.save

     Phonon dispersions for Si                                                  

     bravais-lattice index     =            2
     lattice parameter (alat)  =      10.3463  a.u.
     unit-cell volume          =     276.8823 (a.u.)^3
     number of atoms/cell      =            2
     number of atomic types    =            1
     kinetic-energy cut-off    =      20.0000  Ry
     charge density cut-off    =      80.0000  Ry
     convergence threshold     =      1.0E-14
     beta                      =       0.7000
     number of iterations used =            4
     Exchange-correlation      = PBE ( 1  4  3  4 0 0)


     celldm(1)=   10.34630  celldm(2)=    0.00000  celldm(3)=    0.00000
     celldm(4)=    0.00000  celldm(5)=    0.00000  celldm(6)=    0.00000

     crystal axes: (cart. coord. in units of alat)
               a(1) = ( -0.5000  0.0000  0.5000 )  
               a(2) = (  0.0000  0.5000  0.5000 )  
               a(3) = ( -0.5000  0.5000  0.0000 )  

     reciprocal axes: (cart. coord. in units 2 pi/alat)
               b(1) = ( -1.0000 -1.0000  1.0000 )  
               b(2) = (  1.0000  1.0000  1.0000 )  
               b(3) = ( -1.0000  1.0000 -1.0000 )  


     Atoms inside the unit cell: 

     Cartesian axes

     site n.  atom      mass           positions (alat units)
        1     Si  28.0860   tau(    1) = (    0.00000    0.00000    0.00000  )
        2     Si  28.0860   tau(    2) = (   -0.25000    0.25000    0.25000  )

     Computing dynamical matrix for 
                    q = (   0.0000000   0.5000000   0.0000000 )
 
      8 Sym.Ops. (no q -> -q+G )


     G cutoff =  216.9204  (   1692 G-vectors)     FFT grid: ( 24, 24, 24)
     number of k points=   252

     PseudoPot. # 1 for Si read from file:
     ../../../Pseudo_potentials/Si_PBE.upf
     MD5 check sum: 8bd403cc8851335ce2e07d79feea9aec
     Pseudo is Norm-conserving + core correction, Zval =  4.0
     Generated using ONCVPSP code by D. R. Hamann
     Using radial grid of 1510 points,  6 beta functions with: 
                l(1) =   0
                l(2) =   0
                l(3) =   1
                l(4) =   1
                l(5) =   2
                l(6) =   2

     Mode symmetry, C_4v (4mm)  point group:


     Atomic displacements:
     There are   4 irreducible representations

     Representation     1      1 modes -A_1  G_1 D_1  To be done

     Representation     2      1 modes -B_2  G_4 D_2'  To be done

     Representation     3      2 modes -E    G_5 D_5  To be done

     Representation     4      2 modes -E    G_5 D_5  To be done



     Alpha used in Ewald sum =   0.8000
     PHONON       :  2m56.54s CPU     3m16.93s WALL



     Representation #  1 mode #   1

     Self-consistent Calculation

      iter #   1 total cpu time :   198.3 secs   av.it.:   6.4
      thresh= 1.000E-02 alpha_mix =  0.700 |ddv_scf|^2 =  1.722E-03

      iter #   2 total cpu time :   199.8 secs   av.it.:   8.5
      thresh= 4.149E-03 alpha_mix =  0.700 |ddv_scf|^2 =  2.297E-02

      iter #   3 total cpu time :   201.1 secs   av.it.:   7.3
      thresh= 1.000E-02 alpha_mix =  0.700 |ddv_scf|^2 =  9.826E-09

      iter #   4 total cpu time :   202.7 secs   av.it.:   9.5
      thresh= 9.913E-06 alpha_mix =  0.700 |ddv_scf|^2 =  9.343E-10

      iter #   5 total cpu time :   204.2 secs   av.it.:   9.0
      thresh= 3.057E-06 alpha_mix =  0.700 |ddv_scf|^2 =  1.558E-10

      iter #   6 total cpu time :   205.7 secs   av.it.:   8.7
      thresh= 1.248E-06 alpha_mix =  0.700 |ddv_scf|^2 =  7.264E-13

      iter #   7 total cpu time :   207.3 secs   av.it.:   8.8
      thresh= 8.523E-08 alpha_mix =  0.700 |ddv_scf|^2 =  2.097E-13

      iter #   8 total cpu time :   208.6 secs   av.it.:   7.2
      thresh= 4.579E-08 alpha_mix =  0.700 |ddv_scf|^2 =  4.005E-15

     End of self-consistent calculation

     Convergence has been achieved 


     Representation #  2 mode #   2

     Self-consistent Calculation

      iter #   1 total cpu time :   210.0 secs   av.it.:   5.7
      thresh= 1.000E-02 alpha_mix =  0.700 |ddv_scf|^2 =  2.649E-06

      iter #   2 total cpu time :   211.6 secs   av.it.:   9.4
      thresh= 1.628E-04 alpha_mix =  0.700 |ddv_scf|^2 =  7.057E-07

      iter #   3 total cpu time :   213.2 secs   av.it.:   9.0
      thresh= 8.401E-05 alpha_mix =  0.700 |ddv_scf|^2 =  3.031E-09

      iter #   4 total cpu time :   214.7 secs   av.it.:   9.1
      thresh= 5.505E-06 alpha_mix =  0.700 |ddv_scf|^2 =  1.584E-10

      iter #   5 total cpu time :   216.3 secs   av.it.:   9.2
      thresh= 1.259E-06 alpha_mix =  0.700 |ddv_scf|^2 =  6.942E-13

      iter #   6 total cpu time :   217.8 secs   av.it.:   9.1
      thresh= 8.332E-08 alpha_mix =  0.700 |ddv_scf|^2 =  2.697E-14

      iter #   7 total cpu time :   219.3 secs   av.it.:   9.0
      thresh= 1.642E-08 alpha_mix =  0.700 |ddv_scf|^2 =  5.501E-16

     End of self-consistent calculation

     Convergence has been achieved 


     Representation #  3 modes #   3  4

     Self-consistent Calculation

      iter #   1 total cpu time :   222.0 secs   av.it.:   5.9
      thresh= 1.000E-02 alpha_mix =  0.700 |ddv_scf|^2 =  3.648E-07

      iter #   2 total cpu time :   225.4 secs   av.it.:  10.4
      thresh= 6.040E-05 alpha_mix =  0.700 |ddv_scf|^2 =  5.283E-08

      iter #   3 total cpu time :   228.7 secs   av.it.:  10.0
      thresh= 2.298E-05 alpha_mix =  0.700 |ddv_scf|^2 =  3.397E-10

      iter #   4 total cpu time :   232.3 secs   av.it.:  10.3
      thresh= 1.843E-06 alpha_mix =  0.700 |ddv_scf|^2 =  1.625E-12

      iter #   5 total cpu time :   235.7 secs   av.it.:  10.1
      thresh= 1.275E-07 alpha_mix =  0.700 |ddv_scf|^2 =  6.009E-14

      iter #   6 total cpu time :   239.1 secs   av.it.:  10.4
      thresh= 2.451E-08 alpha_mix =  0.700 |ddv_scf|^2 =  8.802E-16

     End of self-consistent calculation

     Convergence has been achieved 


     Representation #  4 modes #   5  6

     Self-consistent Calculation

      iter #   1 total cpu time :   241.8 secs   av.it.:   5.9
      thresh= 1.000E-02 alpha_mix =  0.700 |ddv_scf|^2 =  5.437E-07

      iter #   2 total cpu time :   245.2 secs   av.it.:  10.3
      thresh= 7.373E-05 alpha_mix =  0.700 |ddv_scf|^2 =  8.002E-08

      iter #   3 total cpu time :   248.5 secs   av.it.:  10.0
      thresh= 2.829E-05 alpha_mix =  0.700 |ddv_scf|^2 =  3.679E-10

      iter #   4 total cpu time :   251.9 secs   av.it.:  10.2
      thresh= 1.918E-06 alpha_mix =  0.700 |ddv_scf|^2 =  1.496E-12

      iter #   5 total cpu time :   255.2 secs   av.it.:  10.1
      thresh= 1.223E-07 alpha_mix =  0.700 |ddv_scf|^2 =  6.272E-14

      iter #   6 total cpu time :   258.6 secs   av.it.:  10.3
      thresh= 2.504E-08 alpha_mix =  0.700 |ddv_scf|^2 =  9.905E-16

     End of self-consistent calculation

     Convergence has been achieved 
 
     Number of q in the star =    6
     List of q in the star:
          1   0.000000000   0.500000000   0.000000000
          2   0.000000000  -0.500000000   0.000000000
          3   0.500000000   0.000000000   0.000000000
          4   0.000000000   0.000000000   0.500000000
          5   0.000000000   0.000000000  -0.500000000
          6  -0.500000000   0.000000000   0.000000000

     Diagonalizing the dynamical matrix

     q = (    0.000000000   0.500000000   0.000000000 ) 

 **************************************************************************
     freq (    1) =       3.802868 [THz] =     126.850025 [cm-1]
     freq (    2) =       3.802868 [THz] =     126.850025 [cm-1]
     freq (    3) =       7.018582 [THz] =     234.114681 [cm-1]
     freq (    4) =      13.791385 [THz] =     460.031080 [cm-1]
     freq (    5) =      13.791385 [THz] =     460.031080 [cm-1]
     freq (    6) =      14.398639 [THz] =     480.286912 [cm-1]
 **************************************************************************

     Mode symmetry, C_4v (4mm)  point group:

     freq (  1 -  2) =        126.9  [cm-1]   --> E    G_5 D_5       
     freq (  3 -  3) =        234.1  [cm-1]   --> A_1  G_1 D_1       
     freq (  4 -  5) =        460.0  [cm-1]   --> E    G_5 D_5       
     freq (  6 -  6) =        480.3  [cm-1]   --> B_2  G_4 D_2'      

     Calculation of q =    0.7500000  -0.2500000   0.7500000
 
     Parallelization info
     --------------------
     sticks:   dense  smooth     PW     G-vecs:    dense   smooth      PW
     Min         150     150     60                 1691     1691     469
     Max         151     151     61                 1692     1692     472
     Sum         301     301    121                 3383     3383     941
 

     Title: 
     Phonon dispersions for Si                                                  


     bravais-lattice index     =            2
     lattice parameter (alat)  =      10.3463  a.u.
     unit-cell volume          =     276.8823 (a.u.)^3
     number of atoms/cell      =            2
     number of atomic types    =            1
     number of electrons       =         8.00
     number of Kohn-Sham states=            8
     kinetic-energy cutoff     =      20.0000  Ry
     charge density cutoff     =      80.0000  Ry
     Exchange-correlation      = PBE ( 1  4  3  4 0 0)

     celldm(1)=  10.346300  celldm(2)=   0.000000  celldm(3)=   0.000000
     celldm(4)=   0.000000  celldm(5)=   0.000000  celldm(6)=   0.000000

     crystal axes: (cart. coord. in units of alat)
               a(1) = (  -0.500000   0.000000   0.500000 )  
               a(2) = (   0.000000   0.500000   0.500000 )  
               a(3) = (  -0.500000   0.500000   0.000000 )  

     reciprocal axes: (cart. coord. in units 2 pi/alat)
               b(1) = ( -1.000000 -1.000000  1.000000 )  
               b(2) = (  1.000000  1.000000  1.000000 )  
               b(3) = ( -1.000000  1.000000 -1.000000 )  


     PseudoPot. # 1 for Si read from file:
     ../../../Pseudo_potentials/Si_PBE.upf
     MD5 check sum: 8bd403cc8851335ce2e07d79feea9aec
     Pseudo is Norm-conserving + core correction, Zval =  4.0
     Generated using ONCVPSP code by D. R. Hamann
     Using radial grid of 1510 points,  6 beta functions with: 
                l(1) =   0
                l(2) =   0
                l(3) =   1
                l(4) =   1
                l(5) =   2
                l(6) =   2

     atomic species   valence    mass     pseudopotential
        Si             4.00    28.08600     Si( 1.00)

     48 Sym. Ops., with inversion, found



   Cartesian axes

     site n.     atom                  positions (alat units)
         1           Si  tau(   1) = (   0.0000000   0.0000000   0.0000000  )
         2           Si  tau(   2) = (  -0.2500000   0.2500000   0.2500000  )

     number of k points=   936

     Number of k-points >= 100: set verbosity='high' to print them.

     Dense  grid:     3383 G-vectors     FFT dimensions: (  24,  24,  24)

     Estimated max dynamical RAM per process >       2.35 MB

     Estimated total dynamical RAM >       4.70 MB

     The potential is recalculated from file :
     ./_ph0/si.save/charge-density.dat

     Starting wfc are    8 atomic wfcs

     Band Structure Calculation
     Davidson diagonalization with overlap

     ethr =  1.25E-10,  avg # of iterations = 18.7

     total cpu time spent up to now is       57.6 secs

     End of band structure calculation

     Number of k-points >= 100: set verbosity='high' to print the bands.

     highest occupied, lowest unoccupied level (ev):     5.8448    6.8047

     Writing output data file si.save

     Phonon dispersions for Si                                                  

     bravais-lattice index     =            2
     lattice parameter (alat)  =      10.3463  a.u.
     unit-cell volume          =     276.8823 (a.u.)^3
     number of atoms/cell      =            2
     number of atomic types    =            1
     kinetic-energy cut-off    =      20.0000  Ry
     charge density cut-off    =      80.0000  Ry
     convergence threshold     =      1.0E-14
     beta                      =       0.7000
     number of iterations used =            4
     Exchange-correlation      = PBE ( 1  4  3  4 0 0)


     celldm(1)=   10.34630  celldm(2)=    0.00000  celldm(3)=    0.00000
     celldm(4)=    0.00000  celldm(5)=    0.00000  celldm(6)=    0.00000

     crystal axes: (cart. coord. in units of alat)
               a(1) = ( -0.5000  0.0000  0.5000 )  
               a(2) = (  0.0000  0.5000  0.5000 )  
               a(3) = ( -0.5000  0.5000  0.0000 )  

     reciprocal axes: (cart. coord. in units 2 pi/alat)
               b(1) = ( -1.0000 -1.0000  1.0000 )  
               b(2) = (  1.0000  1.0000  1.0000 )  
               b(3) = ( -1.0000  1.0000 -1.0000 )  


     Atoms inside the unit cell: 

     Cartesian axes

     site n.  atom      mass           positions (alat units)
        1     Si  28.0860   tau(    1) = (    0.00000    0.00000    0.00000  )
        2     Si  28.0860   tau(    2) = (   -0.25000    0.25000    0.25000  )

     Computing dynamical matrix for 
                    q = (   0.7500000  -0.2500000   0.7500000 )
 
      2 Sym.Ops. (no q -> -q+G )


     G cutoff =  216.9204  (   1692 G-vectors)     FFT grid: ( 24, 24, 24)
     number of k points=   936

     PseudoPot. # 1 for Si read from file:
     ../../../Pseudo_potentials/Si_PBE.upf
     MD5 check sum: 8bd403cc8851335ce2e07d79feea9aec
     Pseudo is Norm-conserving + core correction, Zval =  4.0
     Generated using ONCVPSP code by D. R. Hamann
     Using radial grid of 1510 points,  6 beta functions with: 
                l(1) =   0
                l(2) =   0
                l(3) =   1
                l(4) =   1
                l(5) =   2
                l(6) =   2

     Mode symmetry, C_s (m)     point group:


     Atomic displacements:
     There are   6 irreducible representations

     Representation     1      1 modes -A'  To be done

     Representation     2      1 modes -A'  To be done

     Representation     3      1 modes -A'  To be done

     Representation     4      1 modes -A'  To be done

     Representation     5      1 modes -A''  To be done

     Representation     6      1 modes -A''  To be done



     Alpha used in Ewald sum =   0.8000
     PHONON       :  4m21.71s CPU     4m50.98s WALL



     Representation #  1 mode #   1

     Self-consistent Calculation

      iter #   1 total cpu time :   295.9 secs   av.it.:   6.3
      thresh= 1.000E-02 alpha_mix =  0.700 |ddv_scf|^2 =  7.140E-05

      iter #   2 total cpu time :   301.7 secs   av.it.:   9.3
      thresh= 8.450E-04 alpha_mix =  0.700 |ddv_scf|^2 =  2.064E-04

      iter #   3 total cpu time :   307.0 secs   av.it.:   8.2
      thresh= 1.437E-03 alpha_mix =  0.700 |ddv_scf|^2 =  7.829E-07

      iter #   4 total cpu time :   312.5 secs   av.it.:   8.8
      thresh= 8.848E-05 alpha_mix =  0.700 |ddv_scf|^2 =  5.243E-09

      iter #   5 total cpu time :   318.3 secs   av.it.:   9.3
      thresh= 7.241E-06 alpha_mix =  0.700 |ddv_scf|^2 =  6.172E-10

      iter #   6 total cpu time :   324.2 secs   av.it.:   9.3
      thresh= 2.484E-06 alpha_mix =  0.700 |ddv_scf|^2 =  1.895E-11

      iter #   7 total cpu time :   331.5 secs   av.it.:   9.4
      thresh= 4.353E-07 alpha_mix =  0.700 |ddv_scf|^2 =  4.609E-13

      iter #   8 total cpu time :   337.3 secs   av.it.:   9.4
      thresh= 6.789E-08 alpha_mix =  0.700 |ddv_scf|^2 =  1.425E-13

      iter #   9 total cpu time :   342.8 secs   av.it.:   8.9
      thresh= 3.775E-08 alpha_mix =  0.700 |ddv_scf|^2 =  9.014E-14

      iter #  10 total cpu time :   348.2 secs   av.it.:   8.5
      thresh= 3.002E-08 alpha_mix =  0.700 |ddv_scf|^2 =  8.049E-15

     End of self-consistent calculation

     Convergence has been achieved 


     Representation #  2 mode #   2

     Self-consistent Calculation

      iter #   1 total cpu time :   353.4 secs   av.it.:   6.2
      thresh= 1.000E-02 alpha_mix =  0.700 |ddv_scf|^2 =  4.776E-05

      iter #   2 total cpu time :   359.2 secs   av.it.:   9.3
      thresh= 6.911E-04 alpha_mix =  0.700 |ddv_scf|^2 =  1.364E-04

      iter #   3 total cpu time :   364.7 secs   av.it.:   8.2
      thresh= 1.168E-03 alpha_mix =  0.700 |ddv_scf|^2 =  5.035E-07

      iter #   4 total cpu time :   370.3 secs   av.it.:   9.0
      thresh= 7.096E-05 alpha_mix =  0.700 |ddv_scf|^2 =  7.908E-09

      iter #   5 total cpu time :   376.0 secs   av.it.:   9.2
      thresh= 8.893E-06 alpha_mix =  0.700 |ddv_scf|^2 =  9.647E-10

      iter #   6 total cpu time :   381.9 secs   av.it.:   9.2
      thresh= 3.106E-06 alpha_mix =  0.700 |ddv_scf|^2 =  2.021E-11

      iter #   7 total cpu time :   387.8 secs   av.it.:   9.6
      thresh= 4.496E-07 alpha_mix =  0.700 |ddv_scf|^2 =  1.161E-12

      iter #   8 total cpu time :   393.6 secs   av.it.:   9.4
      thresh= 1.077E-07 alpha_mix =  0.700 |ddv_scf|^2 =  1.535E-13

      iter #   9 total cpu time :   399.4 secs   av.it.:   9.0
      thresh= 3.918E-08 alpha_mix =  0.700 |ddv_scf|^2 =  1.344E-13

      iter #  10 total cpu time :   404.9 secs   av.it.:   8.7
      thresh= 3.666E-08 alpha_mix =  0.700 |ddv_scf|^2 =  7.628E-15

     End of self-consistent calculation

     Convergence has been achieved 


     Representation #  3 mode #   3

     Self-consistent Calculation

      iter #   1 total cpu time :   410.0 secs   av.it.:   6.2
      thresh= 1.000E-02 alpha_mix =  0.700 |ddv_scf|^2 =  3.702E-05

      iter #   2 total cpu time :   415.7 secs   av.it.:   9.3
      thresh= 6.085E-04 alpha_mix =  0.700 |ddv_scf|^2 =  9.498E-05

      iter #   3 total cpu time :   421.1 secs   av.it.:   8.3
      thresh= 9.746E-04 alpha_mix =  0.700 |ddv_scf|^2 =  9.185E-07

      iter #   4 total cpu time :   426.6 secs   av.it.:   8.7
      thresh= 9.584E-05 alpha_mix =  0.700 |ddv_scf|^2 =  9.467E-09

      iter #   5 total cpu time :   432.5 secs   av.it.:   9.1
      thresh= 9.730E-06 alpha_mix =  0.700 |ddv_scf|^2 =  9.957E-10

      iter #   6 total cpu time :   438.2 secs   av.it.:   9.2
      thresh= 3.156E-06 alpha_mix =  0.700 |ddv_scf|^2 =  1.891E-11

      iter #   7 total cpu time :   444.0 secs   av.it.:   9.3
      thresh= 4.348E-07 alpha_mix =  0.700 |ddv_scf|^2 =  3.530E-13

      iter #   8 total cpu time :   449.8 secs   av.it.:   9.5
      thresh= 5.941E-08 alpha_mix =  0.700 |ddv_scf|^2 =  2.320E-14

      iter #   9 total cpu time :   455.6 secs   av.it.:   9.4
      thresh= 1.523E-08 alpha_mix =  0.700 |ddv_scf|^2 =  1.858E-14

      iter #  10 total cpu time :   461.0 secs   av.it.:   8.7
      thresh= 1.363E-08 alpha_mix =  0.700 |ddv_scf|^2 =  5.844E-15

     End of self-consistent calculation

     Convergence has been achieved 


     Representation #  4 mode #   4

     Self-consistent Calculation

      iter #   1 total cpu time :   466.3 secs   av.it.:   6.1
      thresh= 1.000E-02 alpha_mix =  0.700 |ddv_scf|^2 =  1.337E-05

      iter #   2 total cpu time :   472.2 secs   av.it.:   9.5
      thresh= 3.657E-04 alpha_mix =  0.700 |ddv_scf|^2 =  2.492E-05

      iter #   3 total cpu time :   477.5 secs   av.it.:   8.4
      thresh= 4.992E-04 alpha_mix =  0.700 |ddv_scf|^2 =  7.243E-07

      iter #   4 total cpu time :   483.1 secs   av.it.:   8.9
      thresh= 8.511E-05 alpha_mix =  0.700 |ddv_scf|^2 =  8.580E-09

      iter #   5 total cpu time :   488.9 secs   av.it.:   9.2
      thresh= 9.263E-06 alpha_mix =  0.700 |ddv_scf|^2 =  1.247E-09

      iter #   6 total cpu time :   494.7 secs   av.it.:   9.2
      thresh= 3.531E-06 alpha_mix =  0.700 |ddv_scf|^2 =  2.142E-11

      iter #   7 total cpu time :   500.7 secs   av.it.:   9.5
      thresh= 4.629E-07 alpha_mix =  0.700 |ddv_scf|^2 =  1.043E-12

      iter #   8 total cpu time :   506.5 secs   av.it.:   9.4
      thresh= 1.021E-07 alpha_mix =  0.700 |ddv_scf|^2 =  5.065E-14

      iter #   9 total cpu time :   512.2 secs   av.it.:   9.4
      thresh= 2.251E-08 alpha_mix =  0.700 |ddv_scf|^2 =  3.365E-14

      iter #  10 total cpu time :   517.6 secs   av.it.:   8.6
      thresh= 1.834E-08 alpha_mix =  0.700 |ddv_scf|^2 =  4.001E-15

     End of self-consistent calculation

     Convergence has been achieved 


     Representation #  5 mode #   5

     Self-consistent Calculation

      iter #   1 total cpu time :   522.5 secs   av.it.:   5.9
      thresh= 1.000E-02 alpha_mix =  0.700 |ddv_scf|^2 =  2.221E-06

      iter #   2 total cpu time :   528.5 secs   av.it.:   9.3
      thresh= 1.490E-04 alpha_mix =  0.700 |ddv_scf|^2 =  3.952E-07

      iter #   3 total cpu time :   534.2 secs   av.it.:   9.0
      thresh= 6.287E-05 alpha_mix =  0.700 |ddv_scf|^2 =  1.495E-09

      iter #   4 total cpu time :   539.9 secs   av.it.:   9.3
      thresh= 3.866E-06 alpha_mix =  0.700 |ddv_scf|^2 =  5.498E-12

      iter #   5 total cpu time :   545.7 secs   av.it.:   9.2
      thresh= 2.345E-07 alpha_mix =  0.700 |ddv_scf|^2 =  1.912E-13

      iter #   6 total cpu time :   551.4 secs   av.it.:   9.2
      thresh= 4.372E-08 alpha_mix =  0.700 |ddv_scf|^2 =  3.809E-15

     End of self-consistent calculation

     Convergence has been achieved 


     Representation #  6 mode #   6

     Self-consistent Calculation

      iter #   1 total cpu time :   556.5 secs   av.it.:   5.9
      thresh= 1.000E-02 alpha_mix =  0.700 |ddv_scf|^2 =  2.221E-06

      iter #   2 total cpu time :   562.4 secs   av.it.:   9.3
      thresh= 1.490E-04 alpha_mix =  0.700 |ddv_scf|^2 =  3.952E-07

      iter #   3 total cpu time :   568.0 secs   av.it.:   9.0
      thresh= 6.286E-05 alpha_mix =  0.700 |ddv_scf|^2 =  1.495E-09

      iter #   4 total cpu time :   573.7 secs   av.it.:   9.3
      thresh= 3.866E-06 alpha_mix =  0.700 |ddv_scf|^2 =  5.498E-12

      iter #   5 total cpu time :   579.5 secs   av.it.:   9.2
      thresh= 2.345E-07 alpha_mix =  0.700 |ddv_scf|^2 =  1.912E-13

      iter #   6 total cpu time :   585.3 secs   av.it.:   9.2
      thresh= 4.373E-08 alpha_mix =  0.700 |ddv_scf|^2 =  3.811E-15

     End of self-consistent calculation

     Convergence has been achieved 
 
     Number of q in the star =   24
     List of q in the star:
          1   0.750000000  -0.250000000   0.750000000
          2   0.750000000  -0.250000000  -0.750000000
          3  -0.750000000  -0.250000000  -0.750000000
          4  -0.750000000  -0.250000000   0.750000000
          5  -0.750000000   0.250000000  -0.750000000
          6  -0.250000000   0.750000000  -0.750000000
          7  -0.750000000   0.750000000  -0.250000000
          8   0.750000000   0.250000000   0.750000000
          9  -0.750000000   0.250000000   0.750000000
         10   0.750000000   0.250000000  -0.750000000
         11  -0.750000000   0.750000000   0.250000000
         12  -0.250000000   0.750000000   0.750000000
         13   0.250000000   0.750000000  -0.750000000
         14  -0.250000000  -0.750000000  -0.750000000
         15   0.750000000   0.750000000  -0.250000000
         16   0.750000000  -0.750000000   0.250000000
         17  -0.750000000  -0.750000000  -0.250000000
         18   0.250000000  -0.750000000   0.750000000
         19  -0.750000000  -0.750000000   0.250000000
         20   0.250000000   0.750000000   0.750000000
         21  -0.250000000  -0.750000000   0.750000000
         22   0.750000000   0.750000000   0.250000000
         23   0.250000000  -0.750000000  -0.750000000
         24   0.750000000  -0.750000000  -0.250000000

     Diagonalizing the dynamical matrix

     q = (    0.750000000  -0.250000000   0.750000000 ) 

 **************************************************************************
     freq (    1) =       4.243244 [THz] =     141.539390 [cm-1]
     freq (    2) =       5.867082 [THz] =     195.704805 [cm-1]
     freq (    3) =       9.315663 [THz] =     310.737082 [cm-1]
     freq (    4) =      12.023728 [THz] =     401.068390 [cm-1]
     freq (    5) =      13.555526 [THz] =     452.163671 [cm-1]
     freq (    6) =      13.956994 [THz] =     465.555201 [cm-1]
 **************************************************************************

     Mode symmetry, C_s (m)     point group:

     freq (  1 -  1) =        141.5  [cm-1]   --> A''                
     freq (  2 -  2) =        195.7  [cm-1]   --> A'                 
     freq (  3 -  3) =        310.7  [cm-1]   --> A'                 
     freq (  4 -  4) =        401.1  [cm-1]   --> A'                 
     freq (  5 -  5) =        452.2  [cm-1]   --> A''                
     freq (  6 -  6) =        465.6  [cm-1]   --> A'                 

     Calculation of q =    0.5000000   0.0000000   0.5000000
 
     Parallelization info
     --------------------
     sticks:   dense  smooth     PW     G-vecs:    dense   smooth      PW
     Min         150     150     60                 1691     1691     445
     Max         151     151     61                 1692     1692     448
     Sum         301     301    121                 3383     3383     893
 

     Title: 
     Phonon dispersions for Si                                                  


     bravais-lattice index     =            2
     lattice parameter (alat)  =      10.3463  a.u.
     unit-cell volume          =     276.8823 (a.u.)^3
     number of atoms/cell      =            2
     number of atomic types    =            1
     number of electrons       =         8.00
     number of Kohn-Sham states=            8
     kinetic-energy cutoff     =      20.0000  Ry
     charge density cutoff     =      80.0000  Ry
     Exchange-correlation      = PBE ( 1  4  3  4 0 0)

     celldm(1)=  10.346300  celldm(2)=   0.000000  celldm(3)=   0.000000
     celldm(4)=   0.000000  celldm(5)=   0.000000  celldm(6)=   0.000000

     crystal axes: (cart. coord. in units of alat)
               a(1) = (  -0.500000   0.000000   0.500000 )  
               a(2) = (   0.000000   0.500000   0.500000 )  
               a(3) = (  -0.500000   0.500000   0.000000 )  

     reciprocal axes: (cart. coord. in units 2 pi/alat)
               b(1) = ( -1.000000 -1.000000  1.000000 )  
               b(2) = (  1.000000  1.000000  1.000000 )  
               b(3) = ( -1.000000  1.000000 -1.000000 )  


     PseudoPot. # 1 for Si read from file:
     ../../../Pseudo_potentials/Si_PBE.upf
     MD5 check sum: 8bd403cc8851335ce2e07d79feea9aec
     Pseudo is Norm-conserving + core correction, Zval =  4.0
     Generated using ONCVPSP code by D. R. Hamann
     Using radial grid of 1510 points,  6 beta functions with: 
                l(1) =   0
                l(2) =   0
                l(3) =   1
                l(4) =   1
                l(5) =   2
                l(6) =   2

     atomic species   valence    mass     pseudopotential
        Si             4.00    28.08600     Si( 1.00)

     48 Sym. Ops., with inversion, found



   Cartesian axes

     site n.     atom                  positions (alat units)
         1           Si  tau(   1) = (   0.0000000   0.0000000   0.0000000  )
         2           Si  tau(   2) = (  -0.2500000   0.2500000   0.2500000  )

     number of k points=   468

     Number of k-points >= 100: set verbosity='high' to print them.

     Dense  grid:     3383 G-vectors     FFT dimensions: (  24,  24,  24)

     Estimated max dynamical RAM per process >       2.32 MB

     Estimated total dynamical RAM >       4.64 MB

     The potential is recalculated from file :
     ./_ph0/si.save/charge-density.dat

     Starting wfc are    8 atomic wfcs

     Band Structure Calculation
     Davidson diagonalization with overlap

     ethr =  1.25E-10,  avg # of iterations = 19.2

     total cpu time spent up to now is       73.9 secs

     End of band structure calculation

     Number of k-points >= 100: set verbosity='high' to print the bands.

     highest occupied, lowest unoccupied level (ev):     5.8448    6.8047

     Writing output data file si.save

     Phonon dispersions for Si                                                  

     bravais-lattice index     =            2
     lattice parameter (alat)  =      10.3463  a.u.
     unit-cell volume          =     276.8823 (a.u.)^3
     number of atoms/cell      =            2
     number of atomic types    =            1
     kinetic-energy cut-off    =      20.0000  Ry
     charge density cut-off    =      80.0000  Ry
     convergence threshold     =      1.0E-14
     beta                      =       0.7000
     number of iterations used =            4
     Exchange-correlation      = PBE ( 1  4  3  4 0 0)


     celldm(1)=   10.34630  celldm(2)=    0.00000  celldm(3)=    0.00000
     celldm(4)=    0.00000  celldm(5)=    0.00000  celldm(6)=    0.00000

     crystal axes: (cart. coord. in units of alat)
               a(1) = ( -0.5000  0.0000  0.5000 )  
               a(2) = (  0.0000  0.5000  0.5000 )  
               a(3) = ( -0.5000  0.5000  0.0000 )  

     reciprocal axes: (cart. coord. in units 2 pi/alat)
               b(1) = ( -1.0000 -1.0000  1.0000 )  
               b(2) = (  1.0000  1.0000  1.0000 )  
               b(3) = ( -1.0000  1.0000 -1.0000 )  


     Atoms inside the unit cell: 

     Cartesian axes

     site n.  atom      mass           positions (alat units)
        1     Si  28.0860   tau(    1) = (    0.00000    0.00000    0.00000  )
        2     Si  28.0860   tau(    2) = (   -0.25000    0.25000    0.25000  )

     Computing dynamical matrix for 
                    q = (   0.5000000   0.0000000   0.5000000 )
 
      4 Sym.Ops. (no q -> -q+G )


     G cutoff =  216.9204  (   1692 G-vectors)     FFT grid: ( 24, 24, 24)
     number of k points=   468

     PseudoPot. # 1 for Si read from file:
     ../../../Pseudo_potentials/Si_PBE.upf
     MD5 check sum: 8bd403cc8851335ce2e07d79feea9aec
     Pseudo is Norm-conserving + core correction, Zval =  4.0
     Generated using ONCVPSP code by D. R. Hamann
     Using radial grid of 1510 points,  6 beta functions with: 
                l(1) =   0
                l(2) =   0
                l(3) =   1
                l(4) =   1
                l(5) =   2
                l(6) =   2

     Mode symmetry, C_2v (mm2)  point group:


     Atomic displacements:
     There are   6 irreducible representations

     Representation     1      1 modes -A_1  D_1  S_1  To be done

     Representation     2      1 modes -A_1  D_1  S_1  To be done

     Representation     3      1 modes -A_2  D_2  S_2  To be done

     Representation     4      1 modes -B_1  D_3  S_3  To be done

     Representation     5      1 modes -B_2  D_4  S_4  To be done

     Representation     6      1 modes -B_2  D_4  S_4  To be done



     Alpha used in Ewald sum =   0.8000
     PHONON       :  9m 5.81s CPU    10m 2.27s WALL



     Representation #  1 mode #   1

     Self-consistent Calculation

      iter #   1 total cpu time :   604.8 secs   av.it.:   6.1
      thresh= 1.000E-02 alpha_mix =  0.700 |ddv_scf|^2 =  4.063E-05

      iter #   2 total cpu time :   607.7 secs   av.it.:   9.2
      thresh= 6.374E-04 alpha_mix =  0.700 |ddv_scf|^2 =  1.923E-04

      iter #   3 total cpu time :   610.2 secs   av.it.:   7.8
      thresh= 1.387E-03 alpha_mix =  0.700 |ddv_scf|^2 =  5.476E-07

      iter #   4 total cpu time :   613.1 secs   av.it.:   9.0
      thresh= 7.400E-05 alpha_mix =  0.700 |ddv_scf|^2 =  1.212E-09

      iter #   5 total cpu time :   616.0 secs   av.it.:   9.2
      thresh= 3.481E-06 alpha_mix =  0.700 |ddv_scf|^2 =  5.367E-11

      iter #   6 total cpu time :   618.8 secs   av.it.:   9.1
      thresh= 7.326E-07 alpha_mix =  0.700 |ddv_scf|^2 =  7.430E-12

      iter #   7 total cpu time :   621.4 secs   av.it.:   8.1
      thresh= 2.726E-07 alpha_mix =  0.700 |ddv_scf|^2 =  1.188E-12

      iter #   8 total cpu time :   624.1 secs   av.it.:   8.4
      thresh= 1.090E-07 alpha_mix =  0.700 |ddv_scf|^2 =  2.344E-14

      iter #   9 total cpu time :   627.0 secs   av.it.:   9.2
      thresh= 1.531E-08 alpha_mix =  0.700 |ddv_scf|^2 =  2.292E-15

     End of self-consistent calculation

     Convergence has been achieved 


     Representation #  2 mode #   2

     Self-consistent Calculation

      iter #   1 total cpu time :   629.7 secs   av.it.:   6.5
      thresh= 1.000E-02 alpha_mix =  0.700 |ddv_scf|^2 =  3.104E-04

      iter #   2 total cpu time :   632.6 secs   av.it.:   9.1
      thresh= 1.762E-03 alpha_mix =  0.700 |ddv_scf|^2 =  1.650E-03

      iter #   3 total cpu time :   635.1 secs   av.it.:   7.8
      thresh= 4.063E-03 alpha_mix =  0.700 |ddv_scf|^2 =  4.149E-07

      iter #   4 total cpu time :   638.2 secs   av.it.:   9.1
      thresh= 6.442E-05 alpha_mix =  0.700 |ddv_scf|^2 =  6.218E-09

      iter #   5 total cpu time :   641.0 secs   av.it.:   8.9
      thresh= 7.886E-06 alpha_mix =  0.700 |ddv_scf|^2 =  1.420E-10

      iter #   6 total cpu time :   643.8 secs   av.it.:   9.0
      thresh= 1.192E-06 alpha_mix =  0.700 |ddv_scf|^2 =  1.507E-12

      iter #   7 total cpu time :   646.6 secs   av.it.:   8.9
      thresh= 1.228E-07 alpha_mix =  0.700 |ddv_scf|^2 =  2.913E-12

      iter #   8 total cpu time :   649.3 secs   av.it.:   8.2
      thresh= 1.707E-07 alpha_mix =  0.700 |ddv_scf|^2 =  3.173E-13

      iter #   9 total cpu time :   652.0 secs   av.it.:   8.4
      thresh= 5.633E-08 alpha_mix =  0.700 |ddv_scf|^2 =  3.477E-14

      iter #  10 total cpu time :   654.6 secs   av.it.:   8.3
      thresh= 1.865E-08 alpha_mix =  0.700 |ddv_scf|^2 =  4.335E-16

     End of self-consistent calculation

     Convergence has been achieved 


     Representation #  3 mode #   3

     Self-consistent Calculation

      iter #   1 total cpu time :   657.2 secs   av.it.:   5.8
      thresh= 1.000E-02 alpha_mix =  0.700 |ddv_scf|^2 =  2.218E-06

      iter #   2 total cpu time :   660.1 secs   av.it.:   9.3
      thresh= 1.489E-04 alpha_mix =  0.700 |ddv_scf|^2 =  2.240E-07

      iter #   3 total cpu time :   663.0 secs   av.it.:   9.1
      thresh= 4.733E-05 alpha_mix =  0.700 |ddv_scf|^2 =  1.305E-09

      iter #   4 total cpu time :   665.9 secs   av.it.:   9.0
      thresh= 3.613E-06 alpha_mix =  0.700 |ddv_scf|^2 =  2.950E-12

      iter #   5 total cpu time :   668.7 secs   av.it.:   9.0
      thresh= 1.717E-07 alpha_mix =  0.700 |ddv_scf|^2 =  1.273E-13

      iter #   6 total cpu time :   671.7 secs   av.it.:   8.9
      thresh= 3.568E-08 alpha_mix =  0.700 |ddv_scf|^2 =  1.460E-15

     End of self-consistent calculation

     Convergence has been achieved 


     Representation #  4 mode #   4

     Self-consistent Calculation

      iter #   1 total cpu time :   674.1 secs   av.it.:   5.2
      thresh= 1.000E-02 alpha_mix =  0.700 |ddv_scf|^2 =  1.427E-07

      iter #   2 total cpu time :   677.0 secs   av.it.:   9.1
      thresh= 3.778E-05 alpha_mix =  0.700 |ddv_scf|^2 =  5.507E-09

      iter #   3 total cpu time :   679.9 secs   av.it.:   9.1
      thresh= 7.421E-06 alpha_mix =  0.700 |ddv_scf|^2 =  1.836E-10

      iter #   4 total cpu time :   682.7 secs   av.it.:   9.1
      thresh= 1.355E-06 alpha_mix =  0.700 |ddv_scf|^2 =  1.996E-12

      iter #   5 total cpu time :   685.7 secs   av.it.:   9.1
      thresh= 1.413E-07 alpha_mix =  0.700 |ddv_scf|^2 =  1.362E-14

      iter #   6 total cpu time :   688.6 secs   av.it.:   9.1
      thresh= 1.167E-08 alpha_mix =  0.700 |ddv_scf|^2 =  7.654E-17

     End of self-consistent calculation

     Convergence has been achieved 


     Representation #  5 mode #   5

     Self-consistent Calculation

      iter #   1 total cpu time :   691.0 secs   av.it.:   5.1
      thresh= 1.000E-02 alpha_mix =  0.700 |ddv_scf|^2 =  3.618E-07

      iter #   2 total cpu time :   694.0 secs   av.it.:   9.6
      thresh= 6.015E-05 alpha_mix =  0.700 |ddv_scf|^2 =  1.868E-07

      iter #   3 total cpu time :   696.8 secs   av.it.:   9.0
      thresh= 4.322E-05 alpha_mix =  0.700 |ddv_scf|^2 =  4.789E-09

      iter #   4 total cpu time :   699.7 secs   av.it.:   9.2
      thresh= 6.921E-06 alpha_mix =  0.700 |ddv_scf|^2 =  1.092E-10

      iter #   5 total cpu time :   702.6 secs   av.it.:   9.3
      thresh= 1.045E-06 alpha_mix =  0.700 |ddv_scf|^2 =  2.286E-12

      iter #   6 total cpu time :   705.7 secs   av.it.:   9.3
      thresh= 1.512E-07 alpha_mix =  0.700 |ddv_scf|^2 =  3.044E-14

      iter #   7 total cpu time :   708.7 secs   av.it.:   9.4
      thresh= 1.745E-08 alpha_mix =  0.700 |ddv_scf|^2 =  1.359E-15

     End of self-consistent calculation

     Convergence has been achieved 


     Representation #  6 mode #   6

     Self-consistent Calculation

      iter #   1 total cpu time :   711.4 secs   av.it.:   6.1
      thresh= 1.000E-02 alpha_mix =  0.700 |ddv_scf|^2 =  1.339E-05

      iter #   2 total cpu time :   714.3 secs   av.it.:   9.5
      thresh= 3.659E-04 alpha_mix =  0.700 |ddv_scf|^2 =  1.008E-05

      iter #   3 total cpu time :   717.2 secs   av.it.:   8.9
      thresh= 3.175E-04 alpha_mix =  0.700 |ddv_scf|^2 =  6.124E-09

      iter #   4 total cpu time :   720.1 secs   av.it.:   9.2
      thresh= 7.826E-06 alpha_mix =  0.700 |ddv_scf|^2 =  3.273E-10

      iter #   5 total cpu time :   723.0 secs   av.it.:   9.2
      thresh= 1.809E-06 alpha_mix =  0.700 |ddv_scf|^2 =  1.434E-12

      iter #   6 total cpu time :   725.8 secs   av.it.:   9.2
      thresh= 1.197E-07 alpha_mix =  0.700 |ddv_scf|^2 =  7.316E-14

      iter #   7 total cpu time :   728.7 secs   av.it.:   9.2
      thresh= 2.705E-08 alpha_mix =  0.700 |ddv_scf|^2 =  2.111E-15

     End of self-consistent calculation

     Convergence has been achieved 
 
     Number of q in the star =   12
     List of q in the star:
          1   0.500000000   0.000000000   0.500000000
          2  -0.500000000   0.000000000   0.500000000
          3  -0.500000000   0.000000000  -0.500000000
          4   0.500000000   0.000000000  -0.500000000
          5   0.000000000   0.500000000  -0.500000000
          6  -0.500000000   0.500000000   0.000000000
          7   0.000000000   0.500000000   0.500000000
          8   0.000000000  -0.500000000  -0.500000000
          9   0.500000000   0.500000000   0.000000000
         10   0.500000000  -0.500000000   0.000000000
         11  -0.500000000  -0.500000000   0.000000000
         12   0.000000000  -0.500000000   0.500000000

     Diagonalizing the dynamical matrix

     q = (    0.500000000   0.000000000   0.500000000 ) 

 **************************************************************************
     freq (    1) =       4.116203 [THz] =     137.301751 [cm-1]
     freq (    2) =       5.766240 [THz] =     192.341055 [cm-1]
     freq (    3) =       8.266987 [THz] =     275.757011 [cm-1]
     freq (    4) =      12.213139 [THz] =     407.386467 [cm-1]
     freq (    5) =      13.781600 [THz] =     459.704678 [cm-1]
     freq (    6) =      14.205332 [THz] =     473.838877 [cm-1]
 **************************************************************************

     Mode symmetry, C_2v (mm2)  point group:

     freq (  1 -  1) =        137.3  [cm-1]   --> B_1  D_3  S_3      
     freq (  2 -  2) =        192.3  [cm-1]   --> B_2  D_4  S_4      
     freq (  3 -  3) =        275.8  [cm-1]   --> A_1  D_1  S_1      
     freq (  4 -  4) =        407.4  [cm-1]   --> B_2  D_4  S_4      
     freq (  5 -  5) =        459.7  [cm-1]   --> A_2  D_2  S_2      
     freq (  6 -  6) =        473.8  [cm-1]   --> A_1  D_1  S_1      

     Calculation of q =    0.0000000  -1.0000000   0.0000000
 
     Parallelization info
     --------------------
     sticks:   dense  smooth     PW     G-vecs:    dense   smooth      PW
     Min         150     150     60                 1691     1691     445
     Max         151     151     61                 1692     1692     448
     Sum         301     301    121                 3383     3383     893
 

     Title: 
     Phonon dispersions for Si                                                  


     bravais-lattice index     =            2
     lattice parameter (alat)  =      10.3463  a.u.
     unit-cell volume          =     276.8823 (a.u.)^3
     number of atoms/cell      =            2
     number of atomic types    =            1
     number of electrons       =         8.00
     number of Kohn-Sham states=            8
     kinetic-energy cutoff     =      20.0000  Ry
     charge density cutoff     =      80.0000  Ry
     Exchange-correlation      = PBE ( 1  4  3  4 0 0)

     celldm(1)=  10.346300  celldm(2)=   0.000000  celldm(3)=   0.000000
     celldm(4)=   0.000000  celldm(5)=   0.000000  celldm(6)=   0.000000

     crystal axes: (cart. coord. in units of alat)
               a(1) = (  -0.500000   0.000000   0.500000 )  
               a(2) = (   0.000000   0.500000   0.500000 )  
               a(3) = (  -0.500000   0.500000   0.000000 )  

     reciprocal axes: (cart. coord. in units 2 pi/alat)
               b(1) = ( -1.000000 -1.000000  1.000000 )  
               b(2) = (  1.000000  1.000000  1.000000 )  
               b(3) = ( -1.000000  1.000000 -1.000000 )  


     PseudoPot. # 1 for Si read from file:
     ../../../Pseudo_potentials/Si_PBE.upf
     MD5 check sum: 8bd403cc8851335ce2e07d79feea9aec
     Pseudo is Norm-conserving + core correction, Zval =  4.0
     Generated using ONCVPSP code by D. R. Hamann
     Using radial grid of 1510 points,  6 beta functions with: 
                l(1) =   0
                l(2) =   0
                l(3) =   1
                l(4) =   1
                l(5) =   2
                l(6) =   2

     atomic species   valence    mass     pseudopotential
        Si             4.00    28.08600     Si( 1.00)

     48 Sym. Ops., with inversion, found



   Cartesian axes

     site n.     atom                  positions (alat units)
         1           Si  tau(   1) = (   0.0000000   0.0000000   0.0000000  )
         2           Si  tau(   2) = (  -0.2500000   0.2500000   0.2500000  )

     number of k points=   126

     Number of k-points >= 100: set verbosity='high' to print them.

     Dense  grid:     3383 G-vectors     FFT dimensions: (  24,  24,  24)

     Estimated max dynamical RAM per process >       2.35 MB

     Estimated total dynamical RAM >       4.69 MB

     The potential is recalculated from file :
     ./_ph0/si.save/charge-density.dat

     Starting wfc are    8 atomic wfcs

     Band Structure Calculation
     Davidson diagonalization with overlap

     ethr =  1.25E-10,  avg # of iterations = 19.1

     total cpu time spent up to now is       78.4 secs

     End of band structure calculation

     Number of k-points >= 100: set verbosity='high' to print the bands.

     highest occupied, lowest unoccupied level (ev):     5.8448    6.8047

     Writing output data file si.save

     Phonon dispersions for Si                                                  

     bravais-lattice index     =            2
     lattice parameter (alat)  =      10.3463  a.u.
     unit-cell volume          =     276.8823 (a.u.)^3
     number of atoms/cell      =            2
     number of atomic types    =            1
     kinetic-energy cut-off    =      20.0000  Ry
     charge density cut-off    =      80.0000  Ry
     convergence threshold     =      1.0E-14
     beta                      =       0.7000
     number of iterations used =            4
     Exchange-correlation      = PBE ( 1  4  3  4 0 0)


     celldm(1)=   10.34630  celldm(2)=    0.00000  celldm(3)=    0.00000
     celldm(4)=    0.00000  celldm(5)=    0.00000  celldm(6)=    0.00000

     crystal axes: (cart. coord. in units of alat)
               a(1) = ( -0.5000  0.0000  0.5000 )  
[...]
        1     Si  28.0860   tau(    1) = (    0.00000    0.00000    0.00000  )
        2     Si  28.0860   tau(    2) = (   -0.25000    0.25000    0.25000  )

     Computing dynamical matrix for 
                    q = (   0.0000000  -1.0000000   0.0000000 )
 
     17 Sym.Ops. (with q -> -q+G )


     G cutoff =  216.9204  (   1692 G-vectors)     FFT grid: ( 24, 24, 24)
     number of k points=   126

     PseudoPot. # 1 for Si read from file:
     ../../../Pseudo_potentials/Si_PBE.upf
     MD5 check sum: 8bd403cc8851335ce2e07d79feea9aec
     Pseudo is Norm-conserving + core correction, Zval =  4.0
     Generated using ONCVPSP code by D. R. Hamann
     Using radial grid of 1510 points,  6 beta functions with: 
                l(1) =   0
                l(2) =   0
                l(3) =   1
                l(4) =   1
                l(5) =   2
                l(6) =   2


     Atomic displacements:
     There are   3 irreducible representations

     Representation     1      2 modes -  To be done

     Representation     2      2 modes -  To be done

     Representation     3      2 modes -  To be done



     Alpha used in Ewald sum =   0.8000
     PHONON       : 11m 6.22s CPU    12m13.97s WALL



     Representation #  1 modes #   1  2

     Self-consistent Calculation

      iter #   1 total cpu time :   735.2 secs   av.it.:   5.0
      thresh= 1.000E-02 alpha_mix =  0.700 |ddv_scf|^2 =  1.641E-08

      iter #   2 total cpu time :   736.9 secs   av.it.:  10.0
      thresh= 1.281E-05 alpha_mix =  0.700 |ddv_scf|^2 =  9.626E-10

      iter #   3 total cpu time :   738.6 secs   av.it.:  10.0
      thresh= 3.103E-06 alpha_mix =  0.700 |ddv_scf|^2 =  7.012E-12

      iter #   4 total cpu time :   740.3 secs   av.it.:   9.8
      thresh= 2.648E-07 alpha_mix =  0.700 |ddv_scf|^2 =  1.091E-13

      iter #   5 total cpu time :   742.0 secs   av.it.:   9.9
      thresh= 3.303E-08 alpha_mix =  0.700 |ddv_scf|^2 =  3.615E-16

     End of self-consistent calculation

     Convergence has been achieved 


     Representation #  2 modes #   3  4

     Self-consistent Calculation

      iter #   1 total cpu time :   743.5 secs   av.it.:   6.3
      thresh= 1.000E-02 alpha_mix =  0.700 |ddv_scf|^2 =  9.706E-06

      iter #   2 total cpu time :   745.2 secs   av.it.:  10.2
      thresh= 3.115E-04 alpha_mix =  0.700 |ddv_scf|^2 =  1.350E-05

      iter #   3 total cpu time :   746.8 secs   av.it.:   9.4
      thresh= 3.674E-04 alpha_mix =  0.700 |ddv_scf|^2 =  2.437E-09

      iter #   4 total cpu time :   748.4 secs   av.it.:  10.0
      thresh= 4.937E-06 alpha_mix =  0.700 |ddv_scf|^2 =  1.327E-10

      iter #   5 total cpu time :   750.1 secs   av.it.:  10.0
      thresh= 1.152E-06 alpha_mix =  0.700 |ddv_scf|^2 =  1.878E-12

      iter #   6 total cpu time :   751.8 secs   av.it.:   9.7
      thresh= 1.371E-07 alpha_mix =  0.700 |ddv_scf|^2 =  4.657E-14

      iter #   7 total cpu time :   753.4 secs   av.it.:   9.8
      thresh= 2.158E-08 alpha_mix =  0.700 |ddv_scf|^2 =  6.940E-16

     End of self-consistent calculation

     Convergence has been achieved 


     Representation #  3 modes #   5  6

     Self-consistent Calculation

      iter #   1 total cpu time :   754.9 secs   av.it.:   6.1
      thresh= 1.000E-02 alpha_mix =  0.700 |ddv_scf|^2 =  1.777E-06

      iter #   2 total cpu time :   756.6 secs   av.it.:  10.3
      thresh= 1.333E-04 alpha_mix =  0.700 |ddv_scf|^2 =  4.727E-07

      iter #   3 total cpu time :   758.3 secs   av.it.:  10.0
      thresh= 6.876E-05 alpha_mix =  0.700 |ddv_scf|^2 =  5.756E-10

      iter #   4 total cpu time :   760.0 secs   av.it.:  10.1
      thresh= 2.399E-06 alpha_mix =  0.700 |ddv_scf|^2 =  9.564E-13

      iter #   5 total cpu time :   761.7 secs   av.it.:   9.7
      thresh= 9.780E-08 alpha_mix =  0.700 |ddv_scf|^2 =  6.450E-14

      iter #   6 total cpu time :   763.3 secs   av.it.:   9.6
      thresh= 2.540E-08 alpha_mix =  0.700 |ddv_scf|^2 =  3.251E-16

     End of self-consistent calculation

     Convergence has been achieved 
 
     Number of q in the star =    3
     List of q in the star:
          1   0.000000000  -1.000000000   0.000000000
          2  -1.000000000   0.000000000   0.000000000
          3   0.000000000   0.000000000  -1.000000000

     Diagonalizing the dynamical matrix

     q = (    0.000000000  -1.000000000   0.000000000 ) 

 **************************************************************************
     freq (    1) =       4.398374 [THz] =     146.713977 [cm-1]
     freq (    2) =       4.398374 [THz] =     146.713977 [cm-1]
     freq (    3) =      11.966627 [THz] =     399.163705 [cm-1]
     freq (    4) =      11.966627 [THz] =     399.163705 [cm-1]
     freq (    5) =      13.338065 [THz] =     444.909945 [cm-1]
     freq (    6) =      13.338065 [THz] =     444.909945 [cm-1]
 **************************************************************************

     Calculation of q =   -0.5000000  -1.0000000   0.0000000
 
     Parallelization info
     --------------------
     sticks:   dense  smooth     PW     G-vecs:    dense   smooth      PW
     Min         150     150     60                 1691     1691     469
     Max         151     151     61                 1692     1692     472
     Sum         301     301    121                 3383     3383     941
 

     Title: 
     Phonon dispersions for Si                                                  


     bravais-lattice index     =            2
     lattice parameter (alat)  =      10.3463  a.u.
     unit-cell volume          =     276.8823 (a.u.)^3
     number of atoms/cell      =            2
     number of atomic types    =            1
     number of electrons       =         8.00
     number of Kohn-Sham states=            8
     kinetic-energy cutoff     =      20.0000  Ry
     charge density cutoff     =      80.0000  Ry
     Exchange-correlation      = PBE ( 1  4  3  4 0 0)

     celldm(1)=  10.346300  celldm(2)=   0.000000  celldm(3)=   0.000000
     celldm(4)=   0.000000  celldm(5)=   0.000000  celldm(6)=   0.000000

     crystal axes: (cart. coord. in units of alat)
               a(1) = (  -0.500000   0.000000   0.500000 )  
               a(2) = (   0.000000   0.500000   0.500000 )  
               a(3) = (  -0.500000   0.500000   0.000000 )  

     reciprocal axes: (cart. coord. in units 2 pi/alat)
               b(1) = ( -1.000000 -1.000000  1.000000 )  
               b(2) = (  1.000000  1.000000  1.000000 )  
               b(3) = ( -1.000000  1.000000 -1.000000 )  


     PseudoPot. # 1 for Si read from file:
     ../../../Pseudo_potentials/Si_PBE.upf
     MD5 check sum: 8bd403cc8851335ce2e07d79feea9aec
     Pseudo is Norm-conserving + core correction, Zval =  4.0
     Generated using ONCVPSP code by D. R. Hamann
     Using radial grid of 1510 points,  6 beta functions with: 
                l(1) =   0
                l(2) =   0
                l(3) =   1
                l(4) =   1
                l(5) =   2
                l(6) =   2

     atomic species   valence    mass     pseudopotential
        Si             4.00    28.08600     Si( 1.00)

     48 Sym. Ops., with inversion, found



   Cartesian axes

     site n.     atom                  positions (alat units)
         1           Si  tau(   1) = (   0.0000000   0.0000000   0.0000000  )
         2           Si  tau(   2) = (  -0.2500000   0.2500000   0.2500000  )

     number of k points=   216

     Number of k-points >= 100: set verbosity='high' to print them.

     Dense  grid:     3383 G-vectors     FFT dimensions: (  24,  24,  24)

     Estimated max dynamical RAM per process >       2.35 MB

     Estimated total dynamical RAM >       4.71 MB

     The potential is recalculated from file :
     ./_ph0/si.save/charge-density.dat

     Starting wfc are    8 atomic wfcs

     Band Structure Calculation
     Davidson diagonalization with overlap

     ethr =  1.25E-10,  avg # of iterations = 19.4

     total cpu time spent up to now is       85.7 secs

     End of band structure calculation

     Number of k-points >= 100: set verbosity='high' to print the bands.

     highest occupied, lowest unoccupied level (ev):     5.8448    6.8047

     Writing output data file si.save

     Phonon dispersions for Si                                                  

     bravais-lattice index     =            2
     lattice parameter (alat)  =      10.3463  a.u.
     unit-cell volume          =     276.8823 (a.u.)^3
     number of atoms/cell      =            2
     number of atomic types    =            1
     kinetic-energy cut-off    =      20.0000  Ry
     charge density cut-off    =      80.0000  Ry
     convergence threshold     =      1.0E-14
     beta                      =       0.7000
     number of iterations used =            4
     Exchange-correlation      = PBE ( 1  4  3  4 0 0)


     celldm(1)=   10.34630  celldm(2)=    0.00000  celldm(3)=    0.00000
     celldm(4)=    0.00000  celldm(5)=    0.00000  celldm(6)=    0.00000

     crystal axes: (cart. coord. in units of alat)
               a(1) = ( -0.5000  0.0000  0.5000 )  
               a(2) = (  0.0000  0.5000  0.5000 )  
               a(3) = ( -0.5000  0.5000  0.0000 )  

     reciprocal axes: (cart. coord. in units 2 pi/alat)
               b(1) = ( -1.0000 -1.0000  1.0000 )  
               b(2) = (  1.0000  1.0000  1.0000 )  
               b(3) = ( -1.0000  1.0000 -1.0000 )  


     Atoms inside the unit cell: 

     Cartesian axes

     site n.  atom      mass           positions (alat units)
        1     Si  28.0860   tau(    1) = (    0.00000    0.00000    0.00000  )
        2     Si  28.0860   tau(    2) = (   -0.25000    0.25000    0.25000  )

     Computing dynamical matrix for 
                    q = (  -0.5000000  -1.0000000   0.0000000 )
 
      8 Sym.Ops. (no q -> -q+G )


     G cutoff =  216.9204  (   1692 G-vectors)     FFT grid: ( 24, 24, 24)
     number of k points=   216

     PseudoPot. # 1 for Si read from file:
     ../../../Pseudo_potentials/Si_PBE.upf
     MD5 check sum: 8bd403cc8851335ce2e07d79feea9aec
     Pseudo is Norm-conserving + core correction, Zval =  4.0
     Generated using ONCVPSP code by D. R. Hamann
     Using radial grid of 1510 points,  6 beta functions with: 
                l(1) =   0
                l(2) =   0
                l(3) =   1
                l(4) =   1
                l(5) =   2
                l(6) =   2


     Atomic displacements:
     There are   3 irreducible representations

     Representation     1      2 modes -  To be done

     Representation     2      2 modes -  To be done

     Representation     3      2 modes -  To be done



     Alpha used in Ewald sum =   0.8000
     PHONON       : 11m39.87s CPU    12m51.31s WALL



     Representation #  1 modes #   1  2

     Self-consistent Calculation

      iter #   1 total cpu time :   773.6 secs   av.it.:   5.9
      thresh= 1.000E-02 alpha_mix =  0.700 |ddv_scf|^2 =  1.096E-06

      iter #   2 total cpu time :   776.7 secs   av.it.:  10.4
      thresh= 1.047E-04 alpha_mix =  0.700 |ddv_scf|^2 =  6.219E-07

      iter #   3 total cpu time :   779.5 secs   av.it.:   9.8
      thresh= 7.886E-05 alpha_mix =  0.700 |ddv_scf|^2 =  8.560E-10

      iter #   4 total cpu time :   782.3 secs   av.it.:  10.2
      thresh= 2.926E-06 alpha_mix =  0.700 |ddv_scf|^2 =  3.519E-12

      iter #   5 total cpu time :   785.2 secs   av.it.:  10.0
      thresh= 1.876E-07 alpha_mix =  0.700 |ddv_scf|^2 =  9.397E-14

      iter #   6 total cpu time :   788.0 secs   av.it.:  10.1
      thresh= 3.065E-08 alpha_mix =  0.700 |ddv_scf|^2 =  1.751E-15

     End of self-consistent calculation

     Convergence has been achieved 


     Representation #  2 modes #   3  4

     Self-consistent Calculation

      iter #   1 total cpu time :   790.5 secs   av.it.:   6.2
      thresh= 1.000E-02 alpha_mix =  0.700 |ddv_scf|^2 =  5.592E-06

      iter #   2 total cpu time :   793.4 secs   av.it.:  10.3
      thresh= 2.365E-04 alpha_mix =  0.700 |ddv_scf|^2 =  7.551E-06

      iter #   3 total cpu time :   796.2 secs   av.it.:   9.6
      thresh= 2.748E-04 alpha_mix =  0.700 |ddv_scf|^2 =  8.351E-10

      iter #   4 total cpu time :   799.0 secs   av.it.:  10.1
      thresh= 2.890E-06 alpha_mix =  0.700 |ddv_scf|^2 =  2.783E-11

      iter #   5 total cpu time :   801.9 secs   av.it.:  10.2
      thresh= 5.275E-07 alpha_mix =  0.700 |ddv_scf|^2 =  2.722E-13

      iter #   6 total cpu time :   804.8 secs   av.it.:  10.0
      thresh= 5.217E-08 alpha_mix =  0.700 |ddv_scf|^2 =  1.094E-14

      iter #   7 total cpu time :   807.8 secs   av.it.:   9.9
      thresh= 1.046E-08 alpha_mix =  0.700 |ddv_scf|^2 =  1.649E-16

     End of self-consistent calculation

     Convergence has been achieved 


     Representation #  3 modes #   5  6

     Self-consistent Calculation

      iter #   1 total cpu time :   810.3 secs   av.it.:   6.3
      thresh= 1.000E-02 alpha_mix =  0.700 |ddv_scf|^2 =  4.116E-06

      iter #   2 total cpu time :   813.2 secs   av.it.:  10.4
      thresh= 2.029E-04 alpha_mix =  0.700 |ddv_scf|^2 =  2.541E-06

      iter #   3 total cpu time :   816.0 secs   av.it.:   9.8
      thresh= 1.594E-04 alpha_mix =  0.700 |ddv_scf|^2 =  6.743E-10

      iter #   4 total cpu time :   818.9 secs   av.it.:  10.1
      thresh= 2.597E-06 alpha_mix =  0.700 |ddv_scf|^2 =  2.395E-11

      iter #   5 total cpu time :   821.7 secs   av.it.:   9.9
      thresh= 4.894E-07 alpha_mix =  0.700 |ddv_scf|^2 =  1.400E-13

      iter #   6 total cpu time :   824.5 secs   av.it.:   9.7
      thresh= 3.741E-08 alpha_mix =  0.700 |ddv_scf|^2 =  4.042E-15

     End of self-consistent calculation

     Convergence has been achieved 
 
     Number of q in the star =    6
     List of q in the star:
          1  -0.500000000  -1.000000000   0.000000000
          2   0.000000000   1.000000000   0.500000000
          3   0.000000000  -1.000000000  -0.500000000
          4   0.500000000   1.000000000   0.000000000
          5  -1.000000000  -0.500000000   0.000000000
          6   0.000000000  -0.500000000  -1.000000000

     Diagonalizing the dynamical matrix

     q = (   -0.500000000  -1.000000000   0.000000000 ) 

 **************************************************************************
     freq (    1) =       6.012744 [THz] =     200.563541 [cm-1]
     freq (    2) =       6.012744 [THz] =     200.563541 [cm-1]
     freq (    3) =      10.279586 [THz] =     342.890082 [cm-1]
     freq (    4) =      10.279586 [THz] =     342.890082 [cm-1]
     freq (    5) =      13.525107 [THz] =     451.149001 [cm-1]
     freq (    6) =      13.525107 [THz] =     451.149001 [cm-1]
 **************************************************************************
 
     init_run     :      0.16s CPU      0.17s WALL (       7 calls)
     electrons    :     78.66s CPU     83.80s WALL (       7 calls)

     Called by init_run:
     wfcinit      :      0.00s CPU      0.00s WALL (       7 calls)
     potinit      :      0.02s CPU      0.03s WALL (       7 calls)
     hinit0       :      0.11s CPU      0.11s WALL (       7 calls)

     Called by electrons:
     c_bands      :     78.66s CPU     83.80s WALL (       7 calls)
     v_of_rho     :      0.02s CPU      0.03s WALL (       8 calls)

     Called by c_bands:
     init_us_2    :      0.57s CPU      4.86s WALL (   61970 calls)
     cegterg      :     73.05s CPU     76.75s WALL (    3100 calls)

     Called by sum_band:

     Called by *egterg:
     h_psi        :    542.31s CPU    597.90s WALL (  671260 calls)
     g_psi        :      0.03s CPU      0.61s WALL (   48064 calls)
     cdiaghg      :      8.09s CPU      8.52s WALL (   50608 calls)

     Called by h_psi:
     h_psi:pot    :    542.25s CPU    595.88s WALL (  671260 calls)
     h_psi:calbec :     43.00s CPU     27.37s WALL (  671260 calls)
     vloc_psi     :    498.69s CPU    548.42s WALL (  671260 calls)
     add_vuspsi   :      0.53s CPU     18.33s WALL (  671260 calls)

     General routines
     calbec       :     67.54s CPU     46.34s WALL ( 1333096 calls)
     fft          :      1.31s CPU      1.06s WALL (    6666 calls)
     ffts         :      0.83s CPU      1.17s WALL (    8160 calls)
     fftw         :    599.41s CPU    618.99s WALL ( 5965220 calls)
     davcio       :      0.14s CPU      6.97s WALL (  287653 calls)
 
     Parallel routines
     fft_scatt_xy :      2.95s CPU     45.77s WALL ( 5980046 calls)
     fft_scatt_yz :    565.31s CPU    109.14s WALL ( 5980046 calls)
 
     PHONON       : 12m28.10s CPU    13m44.93s WALL

     INITIALIZATION: 
     phq_setup    :      0.10s CPU      0.44s WALL (       8 calls)
     phq_init     :      1.81s CPU      2.15s WALL (       8 calls)
 
     phq_init     :      1.81s CPU      2.15s WALL (       8 calls)
     set_drhoc    :      0.33s CPU      0.34s WALL (      24 calls)
     init_vloc    :      0.00s CPU      0.01s WALL (       8 calls)
     init_us_1    :      0.03s CPU      0.03s WALL (       8 calls)
 
     DYNAMICAL MATRIX:
     dynmat0      :      1.23s CPU      1.53s WALL (       8 calls)
     phqscf       :    658.56s CPU    723.21s WALL (       8 calls)
     dynmatrix    :      0.01s CPU      0.25s WALL (       8 calls)
 
     phqscf       :    658.56s CPU    723.21s WALL (       8 calls)
     solve_linter :    656.01s CPU    718.66s WALL (      32 calls)
     drhodv       :      2.47s CPU      2.72s WALL (      32 calls)
 
     dynmat0      :      1.23s CPU      1.53s WALL (       8 calls)
     dynmat_us    :      0.96s CPU      1.01s WALL (       8 calls)
     d2ionq       :      0.00s CPU      0.00s WALL (       8 calls)
     dynmatcc     :      0.25s CPU      0.25s WALL (       8 calls)
 
     dynmat_us    :      0.96s CPU      1.01s WALL (       8 calls)
 
     phqscf       :    658.56s CPU    723.21s WALL (       8 calls)
     solve_linter :    656.01s CPU    718.66s WALL (      32 calls)
 
     solve_linter :    656.01s CPU    718.66s WALL (      32 calls)
     dvqpsi_us    :     15.81s CPU     18.80s WALL (    7968 calls)
     ortho        :      4.49s CPU      1.86s WALL (   59319 calls)
     cgsolve      :    541.15s CPU    577.09s WALL (   59319 calls)
     incdrhoscf   :     46.58s CPU     56.44s WALL (   59235 calls)
     vpsifft      :     43.06s CPU     47.48s WALL (   50931 calls)
     dv_of_drho   :      0.67s CPU      0.70s WALL (     341 calls)
     mix_pot      :      0.17s CPU      3.49s WALL (     236 calls)
     psymdvscf    :      1.49s CPU      1.60s WALL (     230 calls)
 
     dvqpsi_us    :     15.81s CPU     18.80s WALL (    7968 calls)
     dvqpsi_us_on :      0.78s CPU      2.64s WALL (    7968 calls)
 
     cgsolve      :    541.15s CPU    577.09s WALL (   59319 calls)
     ch_psi       :    527.42s CPU    565.94s WALL (  617552 calls)
 
     ch_psi       :    527.42s CPU    565.94s WALL (  617552 calls)
     h_psi        :    542.31s CPU    597.90s WALL (  671260 calls)
     last         :     48.42s CPU     31.08s WALL (  617552 calls)
 
     h_psi        :    542.31s CPU    597.90s WALL (  671260 calls)
     add_vuspsi   :      0.53s CPU     18.33s WALL (  671260 calls)
 
     incdrhoscf   :     46.58s CPU     56.44s WALL (   59235 calls)
 
 
      General routines
     calbec       :     67.54s CPU     46.34s WALL ( 1333096 calls)
     fft          :      1.31s CPU      1.06s WALL (    6666 calls)
     ffts         :      0.83s CPU      1.17s WALL (    8160 calls)
     fftw         :    599.41s CPU    618.99s WALL ( 5965220 calls)
     davcio       :      0.14s CPU      6.97s WALL (  287653 calls)
     write_rec    :      0.29s CPU      8.22s WALL (     268 calls)
 
 
     PHONON       : 12m28.10s CPU    13m44.93s WALL

 
   This run was terminated on:  13:40:56  10Apr2018            

=------------------------------------------------------------------------------=
   JOB DONE.
=------------------------------------------------------------------------------=
