
     Program PHONON v.6.2.2 starts on 22Apr2018 at 14:34:16 

     This program is part of the open-source Quantum ESPRESSO suite
     for quantum simulation of materials; please cite
         "P. Giannozzi et al., J. Phys.:Condens. Matter 21 395502 (2009);
         "P. Giannozzi et al., J. Phys.:Condens. Matter 29 465901 (2017);
          URL http://www.quantum-espresso.org", 
     in publications or presentations arising from this work. More details at
     http://www.quantum-espresso.org/quote

     Parallel version (MPI), running on     4 processors

     MPI processes distributed on     1 nodes
     R & G space division:  proc/nbgrp/npool/nimage =       4

     Reading data from directory:
     ./SnO2.save/

     IMPORTANT: XC functional enforced from input :
     Exchange-correlation      = PBE ( 1  4  3  4 0 0)
     Any further DFT definition will be discarded
     Please, verify this is what you really want

 
     Parallelization info
     --------------------
     sticks:   dense  smooth     PW     G-vecs:    dense   smooth      PW
     Min         500     500    147                11236    11236    1788
     Max         501     501    149                11237    11237    1789
     Sum        2001    2001    593                44945    44945    7155
 

     Check: negative/imaginary core charge=   -0.000002    0.000000


     Dynamical matrices for ( 2, 2, 2)  uniform grid of q-points
     (   6 q-points):
       N         xq(1)         xq(2)         xq(3) 
       1   0.000000000   0.000000000   0.000000000
       2   0.000000000   0.000000000  -0.744493277
       3   0.000000000  -0.500000000   0.000000000
       4   0.000000000  -0.500000000  -0.744493277
       5  -0.500000000  -0.500000000   0.000000000
       6  -0.500000000  -0.500000000  -0.744493277

     Calculation of q =    0.0000000   0.0000000   0.0000000

     Phonon dispersions for Si                                                  

     bravais-lattice index     =            6
     lattice parameter (alat)  =       9.1370  a.u.
     unit-cell volume          =     512.3005 (a.u.)^3
     number of atoms/cell      =            6
     number of atomic types    =            2
     kinetic-energy cut-off    =      75.0000  Ry
     charge density cut-off    =     300.0000  Ry
     convergence threshold     =      1.0E-14
     beta                      =       0.7000
     number of iterations used =            4
     Exchange-correlation      = PBE ( 1  4  3  4 0 0)


     celldm(1)=    9.13703  celldm(2)=    1.00000  celldm(3)=    0.67160
     celldm(4)=    0.00000  celldm(5)=    0.00000  celldm(6)=    0.00000

     crystal axes: (cart. coord. in units of alat)
               a(1) = (  1.0000  0.0000  0.0000 )  
               a(2) = (  0.0000  1.0000  0.0000 )  
               a(3) = (  0.0000  0.0000  0.6716 )  

     reciprocal axes: (cart. coord. in units 2 pi/alat)
               b(1) = (  1.0000  0.0000  0.0000 )  
               b(2) = (  0.0000  1.0000  0.0000 )  
               b(3) = (  0.0000  0.0000  1.4890 )  


     Atoms inside the unit cell: 

     Cartesian axes

     site n.  atom      mass           positions (alat units)
        1     Sn 118.7100   tau(    1) = (   -0.00033   -0.00033    0.00000  )
        2     Sn 118.7100   tau(    2) = (    0.49967    0.49967    0.33580  )
        3     O   15.9990   tau(    3) = (    0.80637    0.19296    0.33580  )
        4     O   15.9990   tau(    4) = (    0.19296    0.80637    0.33580  )
        5     O   15.9990   tau(    5) = (    0.30637    0.30637    0.00000  )
        6     O   15.9990   tau(    6) = (    0.69296    0.69296    0.00000  )

     Computing dynamical matrix for 
                    q = (   0.0000000   0.0000000   0.0000000 )
 
      5 Sym.Ops. (with q -> -q+G )


     G cutoff =  634.4127  (  11237 G-vectors)     FFT grid: ( 54, 54, 36)
     number of k points=    21

     PseudoPot. # 1 for Sn read from file:
     ../../../Pseudo_potentials/Sn_PBE.upf
     MD5 check sum: 78e6386ae56e929f0568ae8bf606a80c
     Pseudo is Norm-conserving + core correction, Zval = 14.0
     Generated using ONCVPSP code by D. R. Hamann
     Using radial grid of 1628 points,  6 beta functions with: 
                l(1) =   0
                l(2) =   0
                l(3) =   1
                l(4) =   1
                l(5) =   2
                l(6) =   2

     PseudoPot. # 2 for O  read from file:
     ../../../Pseudo_potentials/O_PBE.upf
     MD5 check sum: 3e3f909f7470e8921608ab6b1f57bbae
     Pseudo is Norm-conserving + core correction, Zval =  6.0
     Generated using ONCVPSP code by D. R. Hamann
     Using radial grid of  936 points,  5 beta functions with: 
                l(1) =   0
                l(2) =   0
                l(3) =   1
                l(4) =   1
                l(5) =   2

     Mode symmetry, C_2v (mm2)  point group:


     Electric field:
     Dielectric constant
     Born effective charges in two ways 


     Atomic displacements:
     There are  18 irreducible representations

     Representation     1      1 modes -A_1  D_1  S_1  To be done

     Representation     2      1 modes -A_1  D_1  S_1  To be done

     Representation     3      1 modes -A_1  D_1  S_1  To be done

     Representation     4      1 modes -A_1  D_1  S_1  To be done

     Representation     5      1 modes -A_1  D_1  S_1  To be done

     Representation     6      1 modes -A_1  D_1  S_1  To be done

     Representation     7      1 modes -A_2  D_2  S_2  To be done

     Representation     8      1 modes -B_1  D_3  S_3  To be done

     Representation     9      1 modes -B_1  D_3  S_3  To be done

     Representation    10      1 modes -B_1  D_3  S_3  To be done

     Representation    11      1 modes -B_1  D_3  S_3  To be done

     Representation    12      1 modes -B_1  D_3  S_3  To be done

     Representation    13      1 modes -B_1  D_3  S_3  To be done

     Representation    14      1 modes -B_2  D_4  S_4  To be done

     Representation    15      1 modes -B_2  D_4  S_4  To be done

     Representation    16      1 modes -B_2  D_4  S_4  To be done

     Representation    17      1 modes -B_2  D_4  S_4  To be done

     Representation    18      1 modes -B_2  D_4  S_4  To be done



     Alpha used in Ewald sum =   2.7000
     PHONON       :  0m57.16s CPU     1m44.16s WALL


     Electric Fields Calculation

      iter #   1 total cpu time :   209.1 secs   av.it.:   7.2
      thresh= 1.000E-02 alpha_mix =  0.700 |ddv_scf|^2 =  5.361E-08

      iter #   2 total cpu time :   937.9 secs   av.it.:  13.5
      thresh= 2.315E-05 alpha_mix =  0.700 |ddv_scf|^2 =  8.602E-08

      iter #   3 total cpu time :   992.0 secs   av.it.:  11.8
      thresh= 2.933E-05 alpha_mix =  0.700 |ddv_scf|^2 =  4.090E-09

      iter #   4 total cpu time :  1185.2 secs   av.it.:  13.0
      thresh= 6.395E-06 alpha_mix =  0.700 |ddv_scf|^2 =  1.923E-10

      iter #   5 total cpu time :  1305.6 secs   av.it.:  13.2
      thresh= 1.387E-06 alpha_mix =  0.700 |ddv_scf|^2 =  1.931E-11

      iter #   6 total cpu time :  1566.4 secs   av.it.:  12.6
      thresh= 4.395E-07 alpha_mix =  0.700 |ddv_scf|^2 =  1.389E-13

      iter #   7 total cpu time :  1727.0 secs   av.it.:  14.3
      thresh= 3.726E-08 alpha_mix =  0.700 |ddv_scf|^2 =  6.174E-14

      iter #   8 total cpu time :  1784.7 secs   av.it.:  13.3
      thresh= 2.485E-08 alpha_mix =  0.700 |ddv_scf|^2 =  5.216E-16

     End of electric fields calculation

          Dielectric constant in cartesian axis 

          (       5.792031175       0.000000013       0.000000000 )
          (       0.000000013       5.792031175       0.000000000 )
          (       0.000000000       0.000000000       5.429848679 )

          Effective charges (d Force / dE) in cartesian axis

           atom      1   Sn 
      Ex  (        4.16234        0.57555        0.00000 )
      Ey  (        0.57555        4.16234        0.00000 )
      Ez  (        0.00000        0.00000        4.58746 )
           atom      2   Sn 
      Ex  (        4.16234       -0.57555        0.00000 )
      Ey  (       -0.57555        4.16234        0.00000 )
      Ez  (        0.00000        0.00000        4.58746 )
           atom      3   O  
      Ex  (       -2.10094        0.85825        0.00000 )
      Ey  (        0.85824       -2.10090        0.00000 )
      Ez  (        0.00000        0.00000       -2.35608 )
           atom      4   O  
      Ex  (       -2.10090        0.85824        0.00000 )
      Ey  (        0.85825       -2.10094        0.00000 )
      Ez  (        0.00000        0.00000       -2.35608 )
           atom      5   O  
      Ex  (       -2.10091       -0.85823        0.00000 )
      Ey  (       -0.85823       -2.10091        0.00000 )
      Ez  (        0.00000        0.00000       -2.35608 )
           atom      6   O  
      Ex  (       -2.10093       -0.85825        0.00000 )
      Ey  (       -0.85825       -2.10093        0.00000 )
      Ez  (        0.00000        0.00000       -2.35608 )


     Representation #  1 mode #   1

     Self-consistent Calculation

      iter #   1 total cpu time :  1831.1 secs   av.it.:   6.6
      thresh= 1.000E-02 alpha_mix =  0.700 |ddv_scf|^2 =  2.772E-06

      iter #   2 total cpu time :  1866.6 secs   av.it.:  12.4
      thresh= 1.665E-04 alpha_mix =  0.700 |ddv_scf|^2 =  7.220E-07

      iter #   3 total cpu time :  1880.8 secs   av.it.:  12.2
      thresh= 8.497E-05 alpha_mix =  0.700 |ddv_scf|^2 =  2.403E-07

      iter #   4 total cpu time :  1982.8 secs   av.it.:  11.4
      thresh= 4.902E-05 alpha_mix =  0.700 |ddv_scf|^2 =  9.948E-09

      iter #   5 total cpu time :  2088.3 secs   av.it.:  12.1
      thresh= 9.974E-06 alpha_mix =  0.700 |ddv_scf|^2 =  7.435E-11

      iter #   6 total cpu time :  2110.7 secs   av.it.:  12.9
      thresh= 8.623E-07 alpha_mix =  0.700 |ddv_scf|^2 =  3.457E-11

      iter #   7 total cpu time :  2134.6 secs   av.it.:  12.2
      thresh= 5.880E-07 alpha_mix =  0.700 |ddv_scf|^2 =  1.596E-11

      iter #   8 total cpu time :  2152.8 secs   av.it.:  11.6
      thresh= 3.994E-07 alpha_mix =  0.700 |ddv_scf|^2 =  6.943E-13

      iter #   9 total cpu time :  2172.4 secs   av.it.:  12.2
      thresh= 8.333E-08 alpha_mix =  0.700 |ddv_scf|^2 =  2.444E-14

      iter #  10 total cpu time :  2183.7 secs   av.it.:  12.8
      thresh= 1.563E-08 alpha_mix =  0.700 |ddv_scf|^2 =  1.199E-14

      iter #  11 total cpu time :  2242.8 secs   av.it.:  11.8
      thresh= 1.095E-08 alpha_mix =  0.700 |ddv_scf|^2 =  8.595E-15

     End of self-consistent calculation

     Convergence has been achieved 


     Representation #  2 mode #   2

     Self-consistent Calculation

      iter #   1 total cpu time :  2275.1 secs   av.it.:   7.0
      thresh= 1.000E-02 alpha_mix =  0.700 |ddv_scf|^2 =  9.426E-06

      iter #   2 total cpu time :  2354.7 secs   av.it.:  11.8
      thresh= 3.070E-04 alpha_mix =  0.700 |ddv_scf|^2 =  5.674E-06

      iter #   3 total cpu time :  2365.7 secs   av.it.:  11.1
      thresh= 2.382E-04 alpha_mix =  0.700 |ddv_scf|^2 =  1.429E-07

      iter #   4 total cpu time :  2377.0 secs   av.it.:  11.6
      thresh= 3.780E-05 alpha_mix =  0.700 |ddv_scf|^2 =  5.417E-08

      iter #   5 total cpu time :  2388.9 secs   av.it.:  11.1
      thresh= 2.327E-05 alpha_mix =  0.700 |ddv_scf|^2 =  8.318E-11

      iter #   6 total cpu time :  2401.7 secs   av.it.:  12.5
      thresh= 9.120E-07 alpha_mix =  0.700 |ddv_scf|^2 =  1.256E-11

      iter #   7 total cpu time :  2413.9 secs   av.it.:  12.5
      thresh= 3.544E-07 alpha_mix =  0.700 |ddv_scf|^2 =  1.515E-11

      iter #   8 total cpu time :  2424.8 secs   av.it.:  11.6
      thresh= 3.892E-07 alpha_mix =  0.700 |ddv_scf|^2 =  1.904E-13

      iter #   9 total cpu time :  2437.8 secs   av.it.:  12.8
      thresh= 4.363E-08 alpha_mix =  0.700 |ddv_scf|^2 =  3.406E-14

      iter #  10 total cpu time :  2449.9 secs   av.it.:  12.3
      thresh= 1.846E-08 alpha_mix =  0.700 |ddv_scf|^2 =  1.967E-15

     End of self-consistent calculation

     Convergence has been achieved 


     Representation #  3 mode #   3

     Self-consistent Calculation

      iter #   1 total cpu time :  2459.2 secs   av.it.:   8.0
      thresh= 1.000E-02 alpha_mix =  0.700 |ddv_scf|^2 =  2.411E-05

      iter #   2 total cpu time :  2471.2 secs   av.it.:  12.3
      thresh= 4.910E-04 alpha_mix =  0.700 |ddv_scf|^2 =  2.335E-05

      iter #   3 total cpu time :  2482.0 secs   av.it.:  11.5
      thresh= 4.833E-04 alpha_mix =  0.700 |ddv_scf|^2 =  1.713E-06

      iter #   4 total cpu time :  2493.7 secs   av.it.:  11.4
      thresh= 1.309E-04 alpha_mix =  0.700 |ddv_scf|^2 =  2.373E-09

      iter #   5 total cpu time :  2506.5 secs   av.it.:  12.0
      thresh= 4.872E-06 alpha_mix =  0.700 |ddv_scf|^2 =  5.308E-11

      iter #   6 total cpu time :  2517.1 secs   av.it.:  12.2
      thresh= 7.285E-07 alpha_mix =  0.700 |ddv_scf|^2 =  1.713E-11

      iter #   7 total cpu time :  2529.2 secs   av.it.:  11.8
      thresh= 4.139E-07 alpha_mix =  0.700 |ddv_scf|^2 =  3.163E-13

      iter #   8 total cpu time :  2541.3 secs   av.it.:  12.5
      thresh= 5.624E-08 alpha_mix =  0.700 |ddv_scf|^2 =  9.978E-15

     End of self-consistent calculation

     Convergence has been achieved 


     Representation #  4 mode #   4

     Self-consistent Calculation

      iter #   1 total cpu time :  2551.1 secs   av.it.:   7.2
      thresh= 1.000E-02 alpha_mix =  0.700 |ddv_scf|^2 =  6.153E-06

      iter #   2 total cpu time :  2562.5 secs   av.it.:  12.6
      thresh= 2.480E-04 alpha_mix =  0.700 |ddv_scf|^2 =  3.417E-06

      iter #   3 total cpu time :  2573.1 secs   av.it.:  11.9
      thresh= 1.848E-04 alpha_mix =  0.700 |ddv_scf|^2 =  1.657E-07

      iter #   4 total cpu time :  2584.5 secs   av.it.:  12.0
      thresh= 4.071E-05 alpha_mix =  0.700 |ddv_scf|^2 =  3.853E-08

      iter #   5 total cpu time :  2596.0 secs   av.it.:  11.8
      thresh= 1.963E-05 alpha_mix =  0.700 |ddv_scf|^2 =  3.878E-10

      iter #   6 total cpu time :  2608.7 secs   av.it.:  12.8
      thresh= 1.969E-06 alpha_mix =  0.700 |ddv_scf|^2 =  2.785E-10

      iter #   7 total cpu time :  2620.1 secs   av.it.:  11.9
      thresh= 1.669E-06 alpha_mix =  0.700 |ddv_scf|^2 =  8.280E-12

      iter #   8 total cpu time :  2632.2 secs   av.it.:  12.8
      thresh= 2.878E-07 alpha_mix =  0.700 |ddv_scf|^2 =  1.065E-12

      iter #   9 total cpu time :  2644.7 secs   av.it.:  13.0
      thresh= 1.032E-07 alpha_mix =  0.700 |ddv_scf|^2 =  1.417E-13

      iter #  10 total cpu time :  2695.5 secs   av.it.:  12.3
      thresh= 3.765E-08 alpha_mix =  0.700 |ddv_scf|^2 =  7.012E-15

     End of self-consistent calculation

     Convergence has been achieved 


     Representation #  5 mode #   5

     Self-consistent Calculation

      iter #   1 total cpu time :  2752.3 secs   av.it.:   7.8
      thresh= 1.000E-02 alpha_mix =  0.700 |ddv_scf|^2 =  2.057E-05

      iter #   2 total cpu time :  2818.6 secs   av.it.:  12.2
      thresh= 4.535E-04 alpha_mix =  0.700 |ddv_scf|^2 =  1.756E-05

      iter #   3 total cpu time :  2908.3 secs   av.it.:  11.5
      thresh= 4.191E-04 alpha_mix =  0.700 |ddv_scf|^2 =  1.776E-06

      iter #   4 total cpu time :  2983.6 secs   av.it.:  11.4
      thresh= 1.333E-04 alpha_mix =  0.700 |ddv_scf|^2 =  2.400E-09

      iter #   5 total cpu time :  3584.6 secs   av.it.:  12.1
      thresh= 4.899E-06 alpha_mix =  0.700 |ddv_scf|^2 =  1.917E-10

      iter #   6 total cpu time :  3767.5 secs   av.it.:  11.7
      thresh= 1.384E-06 alpha_mix =  0.700 |ddv_scf|^2 =  7.381E-11

      iter #   7 total cpu time :  3978.1 secs   av.it.:  11.4
      thresh= 8.591E-07 alpha_mix =  0.700 |ddv_scf|^2 =  1.336E-12

      iter #   8 total cpu time :  4258.1 secs   av.it.:  11.6
      thresh= 1.156E-07 alpha_mix =  0.700 |ddv_scf|^2 =  1.886E-14

      iter #   9 total cpu time :  4399.1 secs   av.it.:  12.5
      thresh= 1.373E-08 alpha_mix =  0.700 |ddv_scf|^2 =  2.942E-15

     End of self-consistent calculation

     Convergence has been achieved 


     Representation #  6 mode #   6

     Self-consistent Calculation

      iter #   1 total cpu time :  4486.7 secs   av.it.:   7.2
      thresh= 1.000E-02 alpha_mix =  0.700 |ddv_scf|^2 =  6.153E-06

      iter #   2 total cpu time :  4556.5 secs   av.it.:  12.6
      thresh= 2.480E-04 alpha_mix =  0.700 |ddv_scf|^2 =  3.417E-06

      iter #   3 total cpu time :  4585.8 secs   av.it.:  11.9
      thresh= 1.848E-04 alpha_mix =  0.700 |ddv_scf|^2 =  1.657E-07

      iter #   4 total cpu time :  4894.8 secs   av.it.:  12.0
      thresh= 4.071E-05 alpha_mix =  0.700 |ddv_scf|^2 =  3.853E-08

      iter #   5 total cpu time :  5088.8 secs   av.it.:  11.8
      thresh= 1.963E-05 alpha_mix =  0.700 |ddv_scf|^2 =  3.879E-10

      iter #   6 total cpu time :  5145.8 secs   av.it.:  12.8
      thresh= 1.969E-06 alpha_mix =  0.700 |ddv_scf|^2 =  2.785E-10

      iter #   7 total cpu time :  5188.9 secs   av.it.:  11.9
      thresh= 1.669E-06 alpha_mix =  0.700 |ddv_scf|^2 =  8.280E-12

      iter #   8 total cpu time :  5413.5 secs   av.it.:  12.8
      thresh= 2.878E-07 alpha_mix =  0.700 |ddv_scf|^2 =  1.065E-12

      iter #   9 total cpu time :  5483.2 secs   av.it.:  13.0
      thresh= 1.032E-07 alpha_mix =  0.700 |ddv_scf|^2 =  1.417E-13

      iter #  10 total cpu time :  5535.3 secs   av.it.:  12.3
      thresh= 3.764E-08 alpha_mix =  0.700 |ddv_scf|^2 =  7.011E-15

     End of self-consistent calculation

     Convergence has been achieved 


     Representation #  7 mode #   7

     Self-consistent Calculation

      iter #   1 total cpu time :  5685.6 secs   av.it.:   6.3
      thresh= 1.000E-02 alpha_mix =  0.700 |ddv_scf|^2 =  1.411E-06

      iter #   2 total cpu time :  5777.5 secs   av.it.:  11.4
      thresh= 1.188E-04 alpha_mix =  0.700 |ddv_scf|^2 =  1.758E-08

      iter #   3 total cpu time :  6047.7 secs   av.it.:  11.6
      thresh= 1.326E-05 alpha_mix =  0.700 |ddv_scf|^2 =  2.008E-10

      iter #   4 total cpu time :  6072.4 secs   av.it.:  11.5
      thresh= 1.417E-06 alpha_mix =  0.700 |ddv_scf|^2 =  1.710E-12

      iter #   5 total cpu time :  6278.1 secs   av.it.:  11.7
      thresh= 1.307E-07 alpha_mix =  0.700 |ddv_scf|^2 =  9.763E-15

     End of self-consistent calculation

     Convergence has been achieved 


     Representation #  8 mode #   8

     Self-consistent Calculation

      iter #   1 total cpu time :  6364.9 secs   av.it.:   6.7
      thresh= 1.000E-02 alpha_mix =  0.700 |ddv_scf|^2 =  4.910E-06

      iter #   2 total cpu time :  6556.4 secs   av.it.:  12.1
      thresh= 2.216E-04 alpha_mix =  0.700 |ddv_scf|^2 =  6.219E-07

      iter #   3 total cpu time :  6772.5 secs   av.it.:  12.1
      thresh= 7.886E-05 alpha_mix =  0.700 |ddv_scf|^2 =  4.560E-08

      iter #   4 total cpu time :  6884.6 secs   av.it.:  11.5
      thresh= 2.135E-05 alpha_mix =  0.700 |ddv_scf|^2 =  5.636E-09

      iter #   5 total cpu time :  6963.8 secs   av.it.:  11.7
      thresh= 7.507E-06 alpha_mix =  0.700 |ddv_scf|^2 =  1.019E-10

      iter #   6 total cpu time :  7035.9 secs   av.it.:  12.6
      thresh= 1.010E-06 alpha_mix =  0.700 |ddv_scf|^2 =  8.845E-12

      iter #   7 total cpu time :  7094.9 secs   av.it.:  12.5
      thresh= 2.974E-07 alpha_mix =  0.700 |ddv_scf|^2 =  2.101E-13

      iter #   8 total cpu time :  7190.0 secs   av.it.:  12.2
      thresh= 4.584E-08 alpha_mix =  0.700 |ddv_scf|^2 =  7.734E-15

     End of self-consistent calculation

     Convergence has been achieved 


     Representation #  9 mode #   9

     Self-consistent Calculation

      iter #   1 total cpu time :  7249.0 secs   av.it.:   8.0
      thresh= 1.000E-02 alpha_mix =  0.700 |ddv_scf|^2 =  2.411E-05

      iter #   2 total cpu time :  7335.0 secs   av.it.:  12.3
      thresh= 4.910E-04 alpha_mix =  0.700 |ddv_scf|^2 =  2.335E-05

      iter #   3 total cpu time :  7518.8 secs   av.it.:  11.4
      thresh= 4.833E-04 alpha_mix =  0.700 |ddv_scf|^2 =  1.713E-06

      iter #   4 total cpu time :  7568.2 secs   av.it.:  11.4
      thresh= 1.309E-04 alpha_mix =  0.700 |ddv_scf|^2 =  2.373E-09

      iter #   5 total cpu time :  7833.2 secs   av.it.:  12.1
      thresh= 4.872E-06 alpha_mix =  0.700 |ddv_scf|^2 =  5.307E-11

      iter #   6 total cpu time :  7891.9 secs   av.it.:  12.2
      thresh= 7.285E-07 alpha_mix =  0.700 |ddv_scf|^2 =  1.713E-11

      iter #   7 total cpu time :  8133.1 secs   av.it.:  11.8
      thresh= 4.138E-07 alpha_mix =  0.700 |ddv_scf|^2 =  3.161E-13

      iter #   8 total cpu time :  8189.8 secs   av.it.:  12.4
      thresh= 5.622E-08 alpha_mix =  0.700 |ddv_scf|^2 =  8.948E-15

     End of self-consistent calculation

     Convergence has been achieved 


     Representation # 10 mode #  10

     Self-consistent Calculation

      iter #   1 total cpu time :  8415.9 secs   av.it.:   6.6
      thresh= 1.000E-02 alpha_mix =  0.700 |ddv_scf|^2 =  3.917E-06

      iter #   2 total cpu time :  8478.1 secs   av.it.:  12.1
      thresh= 1.979E-04 alpha_mix =  0.700 |ddv_scf|^2 =  6.434E-07

      iter #   3 total cpu time :  8677.3 secs   av.it.:  12.2
      thresh= 8.021E-05 alpha_mix =  0.700 |ddv_scf|^2 =  1.589E-07

      iter #   4 total cpu time :  8754.8 secs   av.it.:  11.4
      thresh= 3.987E-05 alpha_mix =  0.700 |ddv_scf|^2 =  5.825E-09

      iter #   5 total cpu time :  8899.4 secs   av.it.:  12.1
      thresh= 7.632E-06 alpha_mix =  0.700 |ddv_scf|^2 =  1.486E-10

      iter #   6 total cpu time :  9024.3 secs   av.it.:  12.6
      thresh= 1.219E-06 alpha_mix =  0.700 |ddv_scf|^2 =  1.008E-11

      iter #   7 total cpu time :  9051.1 secs   av.it.:  12.1
      thresh= 3.175E-07 alpha_mix =  0.700 |ddv_scf|^2 =  4.069E-13

      iter #   8 total cpu time :  9072.8 secs   av.it.:  12.1
      thresh= 6.379E-08 alpha_mix =  0.700 |ddv_scf|^2 =  6.483E-15

     End of self-consistent calculation

     Convergence has been achieved 


     Representation # 11 mode #  11

     Self-consistent Calculation

      iter #   1 total cpu time :  9437.3 secs   av.it.:   7.1
      thresh= 1.000E-02 alpha_mix =  0.700 |ddv_scf|^2 =  3.036E-06

      iter #   2 total cpu time :  9620.9 secs   av.it.:  12.6
      thresh= 1.742E-04 alpha_mix =  0.700 |ddv_scf|^2 =  1.113E-06

      iter #   3 total cpu time :  9882.0 secs   av.it.:  12.0
      thresh= 1.055E-04 alpha_mix =  0.700 |ddv_scf|^2 =  2.657E-07

      iter #   4 total cpu time : 10216.7 secs   av.it.:  11.3
      thresh= 5.154E-05 alpha_mix =  0.700 |ddv_scf|^2 =  6.864E-09

      iter #   5 total cpu time : 10279.0 secs   av.it.:  12.1
      thresh= 8.285E-06 alpha_mix =  0.700 |ddv_scf|^2 =  6.272E-11

      iter #   6 total cpu time : 10465.5 secs   av.it.:  12.9
      thresh= 7.920E-07 alpha_mix =  0.700 |ddv_scf|^2 =  9.153E-12

      iter #   7 total cpu time : 10477.5 secs   av.it.:  12.5
      thresh= 3.025E-07 alpha_mix =  0.700 |ddv_scf|^2 =  6.108E-13

      iter #   8 total cpu time : 10488.3 secs   av.it.:  12.3
      thresh= 7.815E-08 alpha_mix =  0.700 |ddv_scf|^2 =  1.362E-14

      iter #   9 total cpu time : 10501.3 secs   av.it.:  13.0
      thresh= 1.167E-08 alpha_mix =  0.700 |ddv_scf|^2 =  2.114E-15

     End of self-consistent calculation

     Convergence has been achieved 


     Representation # 12 mode #  12

     Self-consistent Calculation

      iter #   1 total cpu time : 10510.7 secs   av.it.:   6.6
      thresh= 1.000E-02 alpha_mix =  0.700 |ddv_scf|^2 =  3.918E-06

      iter #   2 total cpu time : 10523.1 secs   av.it.:  12.1
      thresh= 1.979E-04 alpha_mix =  0.700 |ddv_scf|^2 =  6.434E-07

      iter #   3 total cpu time : 10534.2 secs   av.it.:  12.2
      thresh= 8.021E-05 alpha_mix =  0.700 |ddv_scf|^2 =  1.589E-07

      iter #   4 total cpu time : 10545.1 secs   av.it.:  11.4
      thresh= 3.987E-05 alpha_mix =  0.700 |ddv_scf|^2 =  5.826E-09

      iter #   5 total cpu time : 10556.4 secs   av.it.:  12.1
      thresh= 7.633E-06 alpha_mix =  0.700 |ddv_scf|^2 =  1.486E-10

      iter #   6 total cpu time : 10567.2 secs   av.it.:  12.6
      thresh= 1.219E-06 alpha_mix =  0.700 |ddv_scf|^2 =  1.008E-11

      iter #   7 total cpu time : 10578.2 secs   av.it.:  12.1
      thresh= 3.175E-07 alpha_mix =  0.700 |ddv_scf|^2 =  4.069E-13

      iter #   8 total cpu time : 10589.4 secs   av.it.:  12.1
      thresh= 6.379E-08 alpha_mix =  0.700 |ddv_scf|^2 =  6.483E-15

     End of self-consistent calculation

     Convergence has been achieved 


     Representation # 13 mode #  13

     Self-consistent Calculation

      iter #   1 total cpu time : 10599.9 secs   av.it.:   7.8
      thresh= 1.000E-02 alpha_mix =  0.700 |ddv_scf|^2 =  2.057E-05

      iter #   2 total cpu time : 10611.2 secs   av.it.:  12.1
      thresh= 4.535E-04 alpha_mix =  0.700 |ddv_scf|^2 =  1.756E-05

      iter #   3 total cpu time : 10621.9 secs   av.it.:  11.5
      thresh= 4.191E-04 alpha_mix =  0.700 |ddv_scf|^2 =  1.776E-06

      iter #   4 total cpu time : 10632.4 secs   av.it.:  11.3
      thresh= 1.333E-04 alpha_mix =  0.700 |ddv_scf|^2 =  2.400E-09

      iter #   5 total cpu time : 10643.1 secs   av.it.:  12.0
      thresh= 4.899E-06 alpha_mix =  0.700 |ddv_scf|^2 =  1.917E-10

      iter #   6 total cpu time : 10653.8 secs   av.it.:  11.6
      thresh= 1.384E-06 alpha_mix =  0.700 |ddv_scf|^2 =  7.381E-11

      iter #   7 total cpu time : 10664.5 secs   av.it.:  11.4
      thresh= 8.591E-07 alpha_mix =  0.700 |ddv_scf|^2 =  1.336E-12

      iter #   8 total cpu time : 10674.9 secs   av.it.:  11.5
      thresh= 1.156E-07 alpha_mix =  0.700 |ddv_scf|^2 =  1.859E-14

      iter #   9 total cpu time : 10685.1 secs   av.it.:  12.0
      thresh= 1.364E-08 alpha_mix =  0.700 |ddv_scf|^2 =  3.074E-16

     End of self-consistent calculation

     Convergence has been achieved 


     Representation # 14 mode #  14

     Self-consistent Calculation

      iter #   1 total cpu time : 10695.6 secs   av.it.:   7.3
      thresh= 1.000E-02 alpha_mix =  0.700 |ddv_scf|^2 =  7.083E-06

      iter #   2 total cpu time : 10706.4 secs   av.it.:  12.2
      thresh= 2.661E-04 alpha_mix =  0.700 |ddv_scf|^2 =  1.331E-06

      iter #   3 total cpu time : 10716.6 secs   av.it.:  11.8
      thresh= 1.154E-04 alpha_mix =  0.700 |ddv_scf|^2 =  4.063E-09

      iter #   4 total cpu time : 10729.1 secs   av.it.:  12.0
      thresh= 6.374E-06 alpha_mix =  0.700 |ddv_scf|^2 =  3.076E-10

      iter #   5 total cpu time : 10741.0 secs   av.it.:  12.0
      thresh= 1.754E-06 alpha_mix =  0.700 |ddv_scf|^2 =  6.356E-12

      iter #   6 total cpu time : 10752.6 secs   av.it.:  11.8
      thresh= 2.521E-07 alpha_mix =  0.700 |ddv_scf|^2 =  1.204E-13

      iter #   7 total cpu time : 10763.8 secs   av.it.:  12.1
      thresh= 3.470E-08 alpha_mix =  0.700 |ddv_scf|^2 =  4.645E-15

     End of self-consistent calculation

     Convergence has been achieved 


     Representation # 15 mode #  15

     Self-consistent Calculation

      iter #   1 total cpu time : 10770.7 secs   av.it.:   6.7
      thresh= 1.000E-02 alpha_mix =  0.700 |ddv_scf|^2 =  2.044E-06

      iter #   2 total cpu time : 10781.4 secs   av.it.:  12.1
      thresh= 1.430E-04 alpha_mix =  0.700 |ddv_scf|^2 =  1.775E-07

      iter #   3 total cpu time : 10793.1 secs   av.it.:  12.0
      thresh= 4.213E-05 alpha_mix =  0.700 |ddv_scf|^2 =  4.434E-09

      iter #   4 total cpu time : 10803.4 secs   av.it.:  12.0
      thresh= 6.659E-06 alpha_mix =  0.700 |ddv_scf|^2 =  5.019E-11

      iter #   5 total cpu time : 10814.0 secs   av.it.:  12.1
      thresh= 7.085E-07 alpha_mix =  0.700 |ddv_scf|^2 =  2.805E-12

      iter #   6 total cpu time : 10824.3 secs   av.it.:  11.8
      thresh= 1.675E-07 alpha_mix =  0.700 |ddv_scf|^2 =  8.902E-14

      iter #   7 total cpu time : 10834.4 secs   av.it.:  11.4
      thresh= 2.984E-08 alpha_mix =  0.700 |ddv_scf|^2 =  7.200E-15

     End of self-consistent calculation

     Convergence has been achieved 


     Representation # 16 mode #  16

     Self-consistent Calculation

      iter #   1 total cpu time : 10841.5 secs   av.it.:   6.8
      thresh= 1.000E-02 alpha_mix =  0.700 |ddv_scf|^2 =  1.727E-06

      iter #   2 total cpu time : 10853.2 secs   av.it.:  12.5
      thresh= 1.314E-04 alpha_mix =  0.700 |ddv_scf|^2 =  9.755E-08

      iter #   3 total cpu time : 10865.1 secs   av.it.:  12.7
      thresh= 3.123E-05 alpha_mix =  0.700 |ddv_scf|^2 =  4.197E-09

      iter #   4 total cpu time : 10876.8 secs   av.it.:  12.2
      thresh= 6.478E-06 alpha_mix =  0.700 |ddv_scf|^2 =  4.990E-11

      iter #   5 total cpu time : 10888.4 secs   av.it.:  12.5
      thresh= 7.064E-07 alpha_mix =  0.700 |ddv_scf|^2 =  1.647E-12

      iter #   6 total cpu time : 10899.1 secs   av.it.:  12.3
      thresh= 1.284E-07 alpha_mix =  0.700 |ddv_scf|^2 =  9.033E-14

      iter #   7 total cpu time : 10909.7 secs   av.it.:  12.3
      thresh= 3.006E-08 alpha_mix =  0.700 |ddv_scf|^2 =  6.743E-15

     End of self-consistent calculation

     Convergence has been achieved 


     Representation # 17 mode #  17

     Self-consistent Calculation

      iter #   1 total cpu time : 10917.7 secs   av.it.:   7.3
      thresh= 1.000E-02 alpha_mix =  0.700 |ddv_scf|^2 =  7.083E-06

      iter #   2 total cpu time : 10928.2 secs   av.it.:  12.2
      thresh= 2.661E-04 alpha_mix =  0.700 |ddv_scf|^2 =  1.331E-06

      iter #   3 total cpu time : 10938.6 secs   av.it.:  11.7
      thresh= 1.154E-04 alpha_mix =  0.700 |ddv_scf|^2 =  4.063E-09

      iter #   4 total cpu time : 10949.4 secs   av.it.:  12.0
      thresh= 6.374E-06 alpha_mix =  0.700 |ddv_scf|^2 =  3.076E-10

      iter #   5 total cpu time : 10960.8 secs   av.it.:  12.0
      thresh= 1.754E-06 alpha_mix =  0.700 |ddv_scf|^2 =  6.356E-12

      iter #   6 total cpu time : 10971.2 secs   av.it.:  11.9
      thresh= 2.521E-07 alpha_mix =  0.700 |ddv_scf|^2 =  1.204E-13

      iter #   7 total cpu time : 10981.8 secs   av.it.:  12.1
      thresh= 3.470E-08 alpha_mix =  0.700 |ddv_scf|^2 =  4.645E-15

     End of self-consistent calculation

     Convergence has been achieved 


     Representation # 18 mode #  18

     Self-consistent Calculation

      iter #   1 total cpu time : 10989.7 secs   av.it.:   6.8
      thresh= 1.000E-02 alpha_mix =  0.700 |ddv_scf|^2 =  1.727E-06

      iter #   2 total cpu time : 11000.7 secs   av.it.:  12.5
      thresh= 1.314E-04 alpha_mix =  0.700 |ddv_scf|^2 =  9.755E-08

      iter #   3 total cpu time : 11012.0 secs   av.it.:  12.7
      thresh= 3.123E-05 alpha_mix =  0.700 |ddv_scf|^2 =  4.197E-09

      iter #   4 total cpu time : 11023.4 secs   av.it.:  12.2
      thresh= 6.478E-06 alpha_mix =  0.700 |ddv_scf|^2 =  4.990E-11

      iter #   5 total cpu time : 11035.2 secs   av.it.:  12.5
      thresh= 7.064E-07 alpha_mix =  0.700 |ddv_scf|^2 =  1.647E-12

      iter #   6 total cpu time : 11046.4 secs   av.it.:  12.3
      thresh= 1.283E-07 alpha_mix =  0.700 |ddv_scf|^2 =  9.033E-14

      iter #   7 total cpu time : 11057.1 secs   av.it.:  12.3
      thresh= 3.006E-08 alpha_mix =  0.700 |ddv_scf|^2 =  6.743E-15

     End of self-consistent calculation

     Convergence has been achieved 
 
     Number of q in the star =    1
     List of q in the star:
          1   0.000000000   0.000000000   0.000000000

          Dielectric constant in cartesian axis 

          (       5.792031175       0.000000013       0.000000000 )
          (       0.000000013       5.792031175       0.000000000 )
          (       0.000000000       0.000000000       5.429848679 )

          Effective charges (d Force / dE) in cartesian axis

           atom      1   Sn 
      Ex  (        4.16234        0.57555        0.00000 )
      Ey  (        0.57555        4.16234        0.00000 )
      Ez  (        0.00000        0.00000        4.58746 )
           atom      2   Sn 
      Ex  (        4.16234       -0.57555        0.00000 )
      Ey  (       -0.57555        4.16234        0.00000 )
      Ez  (        0.00000        0.00000        4.58746 )
           atom      3   O  
      Ex  (       -2.10094        0.85825        0.00000 )
      Ey  (        0.85824       -2.10090        0.00000 )
      Ez  (        0.00000        0.00000       -2.35608 )
           atom      4   O  
      Ex  (       -2.10090        0.85824        0.00000 )
      Ey  (        0.85825       -2.10094        0.00000 )
      Ez  (        0.00000        0.00000       -2.35608 )
           atom      5   O  
      Ex  (       -2.10091       -0.85823        0.00000 )
      Ey  (       -0.85823       -2.10091        0.00000 )
      Ez  (        0.00000        0.00000       -2.35608 )
           atom      6   O  
      Ex  (       -2.10093       -0.85825        0.00000 )
      Ey  (       -0.85825       -2.10093        0.00000 )
      Ez  (        0.00000        0.00000       -2.35608 )

          Effective charges (d P / du) in cartesian axis 

           atom      1   Sn 
      Px  (        4.16221        0.57610        0.00000 )
      Py  (        0.57610        4.16221        0.00000 )
      Pz  (        0.00000        0.00000        4.58761 )
           atom      2   Sn 
      Px  (        4.16221       -0.57610        0.00000 )
      Py  (       -0.57610        4.16221        0.00000 )
      Pz  (        0.00000        0.00000        4.58761 )
           atom      3   O  
      Px  (       -2.10092        0.85825        0.00000 )
      Py  (        0.85822       -2.10102        0.00000 )
      Pz  (        0.00000        0.00000       -2.35576 )
           atom      4   O  
      Px  (       -2.10102        0.85822        0.00000 )
      Py  (        0.85825       -2.10092        0.00000 )
      Pz  (        0.00000        0.00000       -2.35576 )
           atom      5   O  
      Px  (       -2.10086       -0.85838        0.00000 )
      Py  (       -0.85838       -2.10086        0.00000 )
      Pz  (        0.00000        0.00000       -2.35577 )
           atom      6   O  
      Px  (       -2.10084       -0.85837        0.00000 )
      Py  (       -0.85837       -2.10084        0.00000 )
      Pz  (        0.00000        0.00000       -2.35577 )

     Diagonalizing the dynamical matrix

     q = (    0.000000000   0.000000000   0.000000000 ) 

 **************************************************************************
     freq (    1) =      -0.643148 [THz] =     -21.453116 [cm-1]
     freq (    2) =      -0.567980 [THz] =     -18.945779 [cm-1]
     freq (    3) =       0.726176 [THz] =      24.222629 [cm-1]
     freq (    4) =       2.855127 [THz] =      95.236793 [cm-1]
     freq (    5) =       4.239839 [THz] =     141.425792 [cm-1]
     freq (    6) =       6.397463 [THz] =     213.396380 [cm-1]
     freq (    7) =       6.398898 [THz] =     213.444269 [cm-1]
     freq (    8) =       7.795496 [THz] =     260.029755 [cm-1]
     freq (    9) =       7.796427 [THz] =     260.060821 [cm-1]
     freq (   10) =      10.049142 [THz] =     335.203311 [cm-1]
     freq (   11) =      13.088570 [THz] =     436.587692 [cm-1]
     freq (   12) =      13.286829 [THz] =     443.200896 [cm-1]
     freq (   13) =      13.298546 [THz] =     443.591747 [cm-1]
     freq (   14) =      15.964236 [THz] =     532.509579 [cm-1]
     freq (   15) =      16.433189 [THz] =     548.152188 [cm-1]
     freq (   16) =      16.433677 [THz] =     548.168460 [cm-1]
     freq (   17) =      17.506505 [THz] =     583.954135 [cm-1]
     freq (   18) =      21.136607 [THz] =     705.041312 [cm-1]
 **************************************************************************

     Mode symmetry, C_2v (mm2)  point group:

     freq (  1 -  1) =        -21.5  [cm-1]   --> A_1  D_1  S_1   I+R
     freq (  2 -  2) =        -18.9  [cm-1]   --> B_1  D_3  S_3   I+R
     freq (  3 -  3) =         24.2  [cm-1]   --> B_2  D_4  S_4   I+R
     freq (  4 -  4) =         95.2  [cm-1]   --> B_1  D_3  S_3   I+R
     freq (  5 -  5) =        141.4  [cm-1]   --> B_2  D_4  S_4   I+R
     freq (  6 -  6) =        213.4  [cm-1]   --> A_1  D_1  S_1   I+R
     freq (  7 -  7) =        213.4  [cm-1]   --> B_1  D_3  S_3   I+R
     freq (  8 -  8) =        260.0  [cm-1]   --> A_1  D_1  S_1   I+R
     freq (  9 -  9) =        260.1  [cm-1]   --> B_1  D_3  S_3   I+R
     freq ( 10 - 10) =        335.2  [cm-1]   --> B_1  D_3  S_3   I+R
     freq ( 11 - 11) =        436.6  [cm-1]   --> B_2  D_4  S_4   I+R
     freq ( 12 - 12) =        443.2  [cm-1]   --> A_2  D_2  S_2   R  
     freq ( 13 - 13) =        443.6  [cm-1]   --> B_2  D_4  S_4   I+R
     freq ( 14 - 14) =        532.5  [cm-1]   --> B_2  D_4  S_4   I+R
     freq ( 15 - 15) =        548.2  [cm-1]   --> A_1  D_1  S_1   I+R
     freq ( 16 - 16) =        548.2  [cm-1]   --> B_1  D_3  S_3   I+R
     freq ( 17 - 17) =        584.0  [cm-1]   --> A_1  D_1  S_1   I+R
     freq ( 18 - 18) =        705.0  [cm-1]   --> A_1  D_1  S_1   I+R

     Calculation of q =    0.0000000   0.0000000  -0.7444933
 
     Parallelization info
     --------------------
     sticks:   dense  smooth     PW     G-vecs:    dense   smooth      PW
     Min         500     500    159                11236    11236    2022
     Max         501     501    161                11237    11237    2023
     Sum        2001    2001    641                44945    44945    8091
 

     Title: 
     Phonon dispersions for Si                                                  


     bravais-lattice index     =            6
     lattice parameter (alat)  =       9.1370  a.u.
     unit-cell volume          =     512.3005 (a.u.)^3
     number of atoms/cell      =            6
     number of atomic types    =            2
     number of electrons       =        52.00
     number of Kohn-Sham states=           26
     kinetic-energy cutoff     =      75.0000  Ry
     charge density cutoff     =     300.0000  Ry
     Exchange-correlation      = PBE ( 1  4  3  4 0 0)

     celldm(1)=   9.137033  celldm(2)=   1.000000  celldm(3)=   0.671598
     celldm(4)=   0.000000  celldm(5)=   0.000000  celldm(6)=   0.000000

     crystal axes: (cart. coord. in units of alat)
               a(1) = (   1.000000   0.000000   0.000000 )  
               a(2) = (   0.000000   1.000000   0.000000 )  
               a(3) = (   0.000000   0.000000   0.671598 )  

     reciprocal axes: (cart. coord. in units 2 pi/alat)
               b(1) = (  1.000000  0.000000  0.000000 )  
               b(2) = (  0.000000  1.000000  0.000000 )  
               b(3) = (  0.000000  0.000000  1.488987 )  


     PseudoPot. # 1 for Sn read from file:
     ../../../Pseudo_potentials/Sn_PBE.upf
     MD5 check sum: 78e6386ae56e929f0568ae8bf606a80c
     Pseudo is Norm-conserving + core correction, Zval = 14.0
     Generated using ONCVPSP code by D. R. Hamann
     Using radial grid of 1628 points,  6 beta functions with: 
                l(1) =   0
                l(2) =   0
                l(3) =   1
                l(4) =   1
                l(5) =   2
                l(6) =   2

     PseudoPot. # 2 for O  read from file:
     ../../../Pseudo_potentials/O_PBE.upf
     MD5 check sum: 3e3f909f7470e8921608ab6b1f57bbae
     Pseudo is Norm-conserving + core correction, Zval =  6.0
     Generated using ONCVPSP code by D. R. Hamann
     Using radial grid of  936 points,  5 beta functions with: 
                l(1) =   0
                l(2) =   0
                l(3) =   1
                l(4) =   1
                l(5) =   2

     atomic species   valence    mass     pseudopotential
        Sn            14.00   118.71000     Sn( 1.00)
        O              6.00    15.99900     O ( 1.00)

      4 Sym. Ops. (no inversion) found



   Cartesian axes

     site n.     atom                  positions (alat units)
         1           Sn  tau(   1) = (  -0.0003320  -0.0003320   0.0000000  )
         2           Sn  tau(   2) = (   0.4996675   0.4996675   0.3357989  )
         3           O   tau(   3) = (   0.8063692   0.1929618   0.3357989  )
         4           O   tau(   4) = (   0.1929618   0.8063692   0.3357989  )
         5           O   tau(   5) = (   0.3063705   0.3063705   0.0000000  )
         6           O   tau(   6) = (   0.6929630   0.6929630   0.0000000  )

     number of k points=    42
                       cart. coord. in units 2pi/alat
        k(    1) = (   0.0000000   0.0000000   0.0000000), wk =   0.0312500
        k(    2) = (   0.0000000   0.0000000  -0.7444933), wk =   0.0000000
        k(    3) = (   0.0000000   0.0000000   0.3722466), wk =   0.0625000
        k(    4) = (   0.0000000   0.0000000  -0.3722466), wk =   0.0000000
        k(    5) = (   0.0000000   0.0000000  -0.7444933), wk =   0.0312500
        k(    6) = (   0.0000000   0.0000000  -1.4889866), wk =   0.0000000
        k(    7) = (   0.0000000   0.2500000   0.0000000), wk =   0.1250000
        k(    8) = (   0.0000000   0.2500000  -0.7444933), wk =   0.0000000
        k(    9) = (   0.0000000   0.2500000   0.3722466), wk =   0.2500000
        k(   10) = (   0.0000000   0.2500000  -0.3722466), wk =   0.0000000
        k(   11) = (   0.0000000   0.2500000  -0.7444933), wk =   0.1250000
        k(   12) = (   0.0000000   0.2500000  -1.4889866), wk =   0.0000000
        k(   13) = (   0.0000000  -0.5000000   0.0000000), wk =   0.0625000
        k(   14) = (   0.0000000  -0.5000000  -0.7444933), wk =   0.0000000
        k(   15) = (   0.0000000  -0.5000000   0.3722466), wk =   0.1250000
        k(   16) = (   0.0000000  -0.5000000  -0.3722466), wk =   0.0000000
        k(   17) = (   0.0000000  -0.5000000  -0.7444933), wk =   0.0625000
        k(   18) = (   0.0000000  -0.5000000  -1.4889866), wk =   0.0000000
        k(   19) = (   0.2500000   0.2500000   0.0000000), wk =   0.0625000
        k(   20) = (   0.2500000   0.2500000  -0.7444933), wk =   0.0000000
        k(   21) = (   0.2500000   0.2500000   0.3722466), wk =   0.1250000
        k(   22) = (   0.2500000   0.2500000  -0.3722466), wk =   0.0000000
        k(   23) = (   0.2500000   0.2500000  -0.7444933), wk =   0.0625000
        k(   24) = (   0.2500000   0.2500000  -1.4889866), wk =   0.0000000
        k(   25) = (   0.2500000  -0.5000000   0.0000000), wk =   0.1250000
        k(   26) = (   0.2500000  -0.5000000  -0.7444933), wk =   0.0000000
        k(   27) = (   0.2500000  -0.5000000   0.3722466), wk =   0.2500000
        k(   28) = (   0.2500000  -0.5000000  -0.3722466), wk =   0.0000000
        k(   29) = (   0.2500000  -0.5000000  -0.7444933), wk =   0.1250000
        k(   30) = (   0.2500000  -0.5000000  -1.4889866), wk =   0.0000000
        k(   31) = (  -0.5000000  -0.5000000   0.0000000), wk =   0.0312500
        k(   32) = (  -0.5000000  -0.5000000  -0.7444933), wk =   0.0000000
        k(   33) = (  -0.5000000  -0.5000000   0.3722466), wk =   0.0625000
        k(   34) = (  -0.5000000  -0.5000000  -0.3722466), wk =   0.0000000
        k(   35) = (  -0.5000000  -0.5000000  -0.7444933), wk =   0.0312500
        k(   36) = (  -0.5000000  -0.5000000  -1.4889866), wk =   0.0000000
        k(   37) = (   0.2500000  -0.2500000   0.0000000), wk =   0.0625000
        k(   38) = (   0.2500000  -0.2500000  -0.7444933), wk =   0.0000000
        k(   39) = (   0.2500000  -0.2500000   0.3722466), wk =   0.1250000
        k(   40) = (   0.2500000  -0.2500000  -0.3722466), wk =   0.0000000
        k(   41) = (   0.2500000  -0.2500000  -0.7444933), wk =   0.0625000
        k(   42) = (   0.2500000  -0.2500000  -1.4889866), wk =   0.0000000

     Dense  grid:    44945 G-vectors     FFT dimensions: (  54,  54,  36)

     Estimated max dynamical RAM per process >      15.33 MB

     Estimated total dynamical RAM >      61.31 MB

     Check: negative/imaginary core charge=   -0.000002    0.000000

     The potential is recalculated from file :
     ./_ph0/SnO2.save/charge-density.dat

     Starting wfc are   34 atomic wfcs

     Band Structure Calculation
     Davidson diagonalization with overlap

     ethr =  1.92E-11,  avg # of iterations = 12.1

     total cpu time spent up to now is       18.8 secs

     End of band structure calculation

          k = 0.0000 0.0000 0.0000 (  5609 PWs)   bands (ev):

   -12.1626 -11.5450 -11.3470 -11.3189 -11.3189 -11.2385 -11.2181 -11.1520
   -11.1404 -11.1404  -9.6859  -7.9707  -7.9707  -6.5142   0.9520   5.0331
     5.0331   5.1380   6.0354   6.8925   6.9464   7.6277   7.6277   8.1988
     8.1988   8.9050

          k = 0.0000 0.0000-0.7445 (  5592 PWs)   bands (ev):

   -11.9501 -11.9501 -11.5390 -11.5390 -11.2291 -11.2291 -11.1701 -11.1701
   -11.1439 -11.1439  -8.1430  -8.1430  -6.7335  -6.7335   1.8690   1.8690
     4.8539   4.8539   5.2050   5.2050   6.3255   6.3255   7.4124   7.4124
     7.7393   7.7393

          k = 0.0000 0.0000 0.3722 (  5617 PWs)   bands (ev):

   -11.9331 -11.6684 -11.6684 -11.3667 -11.2649 -11.2522 -11.2009 -11.1882
   -11.1882 -11.1543  -9.3178  -7.3321  -7.3321  -6.9288   1.0010   4.3325
     4.8040   5.4731   5.4731   6.1603   6.1603   6.3414   6.4217   8.1120
     8.1120   8.4645

          k = 0.0000 0.0000-0.3722 (  5617 PWs)   bands (ev):

   -11.9331 -11.6684 -11.6684 -11.3667 -11.2649 -11.2522 -11.2009 -11.1882
   -11.1882 -11.1543  -9.3178  -7.3321  -7.3321  -6.9288   1.0010   4.3325
     4.8040   5.4731   5.4731   6.1603   6.1603   6.3414   6.4217   8.1120
     8.1120   8.4645

          k = 0.0000 0.0000-0.7445 (  5592 PWs)   bands (ev):

   -11.9501 -11.9501 -11.5390 -11.5390 -11.2291 -11.2291 -11.1701 -11.1701
   -11.1439 -11.1439  -8.1430  -8.1430  -6.7335  -6.7335   1.8690   1.8690
     4.8539   4.8539   5.2050   5.2050   6.3255   6.3255   7.4124   7.4124
     7.7393   7.7393

          k = 0.0000 0.0000-1.4890 (  5609 PWs)   bands (ev):

   -12.1626 -11.5450 -11.3470 -11.3189 -11.3189 -11.2385 -11.2181 -11.1520
   -11.1404 -11.1404  -9.6859  -7.9707  -7.9707  -6.5142   0.9520   5.0331
     5.0331   5.1380   6.0354   6.8925   6.9464   7.6277   7.6277   8.1988
     8.1988   8.9050

          k = 0.0000 0.2500 0.0000 (  5635 PWs)   bands (ev):

   -12.0830 -11.6330 -11.3440 -11.3157 -11.3156 -11.2902 -11.2072 -11.1604
   -11.1443 -11.1441  -9.4985  -8.3184  -7.6929  -6.6391   1.3608   4.0371
     5.3004   5.3527   6.3468   6.5918   7.1183   7.2886   7.6484   7.6813
     8.2276   8.6421

          k = 0.0000 0.2500-0.7445 (  5594 PWs)   bands (ev):

   -12.0366 -12.0366 -11.4196 -11.4196 -11.2323 -11.2323 -11.1677 -11.1677
   -11.1383 -11.1383  -8.2496  -8.2496  -6.6471  -6.6471   1.9678   1.9678
     4.1742   4.1742   4.9509   4.9509   7.1072   7.1072   7.6026   7.6026
     7.8400   7.8400

          k = 0.0000 0.2500 0.3722 (  5630 PWs)   bands (ev):

   -11.9344 -11.7627 -11.5918 -11.3650 -11.2619 -11.2483 -11.1968 -11.1830
   -11.1822 -11.1584  -9.1511  -7.8801  -7.1617  -6.7338   1.4021   3.8184
     4.2377   4.5802   5.8786   5.9479   6.4348   6.9891   7.1456   8.0315
     8.0601   8.4349

          k = 0.0000 0.2500-0.3722 (  5630 PWs)   bands (ev):

   -11.9344 -11.7627 -11.5918 -11.3650 -11.2619 -11.2483 -11.1968 -11.1830
   -11.1822 -11.1584  -9.1511  -7.8801  -7.1617  -6.7338   1.4021   3.8184
     4.2377   4.5802   5.8786   5.9479   6.4348   6.9891   7.1456   8.0315
     8.0601   8.4349

          k = 0.0000 0.2500-0.7445 (  5594 PWs)   bands (ev):

   -12.0366 -12.0366 -11.4196 -11.4196 -11.2323 -11.2323 -11.1677 -11.1677
   -11.1383 -11.1383  -8.2496  -8.2496  -6.6471  -6.6471   1.9678   1.9678
     4.1742   4.1742   4.9509   4.9509   7.1072   7.1072   7.6026   7.6026
     7.8400   7.8400

          k = 0.0000 0.2500-1.4890 (  5635 PWs)   bands (ev):

   -12.0830 -11.6330 -11.3440 -11.3157 -11.3156 -11.2902 -11.2072 -11.1604
   -11.1443 -11.1441  -9.4985  -8.3184  -7.6929  -6.6391   1.3608   4.0371
     5.3004   5.3527   6.3468   6.5918   7.1183   7.2886   7.6484   7.6813
     8.2276   8.6421

          k = 0.0000-0.5000 0.0000 (  5638 PWs)   bands (ev):

   -11.8700 -11.8700 -11.3317 -11.3317 -11.3122 -11.3122 -11.1826 -11.1826
   -11.1481 -11.1481  -8.9779  -8.9779  -7.1034  -7.1034   2.5030   2.5030
     5.9181   5.9181   6.0414   6.0415   7.0261   7.0261   7.6873   7.6873
     8.3164   8.3165

          k = 0.0000-0.5000-0.7445 (  5596 PWs)   bands (ev):

   -12.0981 -12.0981 -11.3303 -11.3303 -11.2286 -11.2286 -11.1655 -11.1655
   -11.1324 -11.1324  -8.3496  -8.3496  -6.5691  -6.5691   2.1188   2.1188
     3.5832   3.5832   4.8956   4.8956   7.2474   7.2474   7.9227   7.9227
     8.1384   8.1384

          k = 0.0000-0.5000 0.3722 (  5634 PWs)   bands (ev):

   -11.8849 -11.8849 -11.4498 -11.4498 -11.2540 -11.2540 -11.1863 -11.1863
   -11.1693 -11.1693  -8.6283  -8.6282  -6.8411  -6.8411   2.4886   2.4886
     4.0708   4.0708   5.8511   5.8511   7.3812   7.3812   7.5712   7.5712
     8.1511   8.1511

          k = 0.0000-0.5000-0.3722 (  5634 PWs)   bands (ev):

   -11.8849 -11.8849 -11.4498 -11.4498 -11.2540 -11.2540 -11.1863 -11.1863
   -11.1693 -11.1693  -8.6283  -8.6282  -6.8411  -6.8411   2.4886   2.4886
     4.0708   4.0708   5.8511   5.8511   7.3812   7.3812   7.5712   7.5712
     8.1511   8.1511

          k = 0.0000-0.5000-0.7445 (  5596 PWs)   bands (ev):

   -12.0981 -12.0981 -11.3303 -11.3303 -11.2286 -11.2286 -11.1655 -11.1655
   -11.1324 -11.1324  -8.3496  -8.3496  -6.5691  -6.5691   2.1188   2.1188
     3.5832   3.5832   4.8956   4.8956   7.2474   7.2474   7.9227   7.9227
     8.1384   8.1384

          k = 0.0000-0.5000-1.4890 (  5638 PWs)   bands (ev):

   -11.8700 -11.8700 -11.3317 -11.3317 -11.3122 -11.3122 -11.1826 -11.1826
   -11.1481 -11.1481  -8.9779  -8.9779  -7.1034  -7.1034   2.5030   2.5030
     5.9181   5.9181   6.0414   6.0415   7.0261   7.0261   7.6873   7.6873
     8.3164   8.3165

          k = 0.2500 0.2500 0.0000 (  5644 PWs)   bands (ev):

   -12.0375 -11.7201 -11.3389 -11.3199 -11.3122 -11.3078 -11.1990 -11.1658
   -11.1481 -11.1400  -9.2878  -8.0564  -8.0220  -6.8412   1.7902   3.9375
     5.0821   5.5257   6.4141   6.5477   6.6397   7.3105   7.5926   7.6908
     8.1406   8.4626

          k = 0.2500 0.2500-0.7445 (  5618 PWs)   bands (ev):

   -12.0979 -11.9549 -11.5470 -11.3216 -11.2351 -11.2324 -11.1677 -11.1654
   -11.1381 -11.1347  -8.3504  -8.0699  -6.7685  -6.5670   1.4858   2.0749
     3.8987   4.4074   4.4641   6.0556   6.3450   7.7137   7.7349   7.7753
     7.8297   7.9584

          k = 0.2500 0.2500 0.3722 (  5619 PWs)   bands (ev):

   -11.9181 -11.7073 -11.6720 -11.3993 -11.2635 -11.2417 -11.1954 -11.1827
   -11.1813 -11.1620  -8.9495  -7.8533  -7.3754  -6.7581   1.6761   3.0420
     4.3785   5.4140   5.5583   5.6169   6.1935   7.2401   7.5908   7.8376
     8.1151   8.4311

          k = 0.2500 0.2500-0.3722 (  5619 PWs)   bands (ev):

   -11.9181 -11.7073 -11.6720 -11.3993 -11.2635 -11.2417 -11.1954 -11.1827
   -11.1813 -11.1620  -8.9495  -7.8533  -7.3754  -6.7581   1.6761   3.0420
     4.3785   5.4140   5.5583   5.6169   6.1935   7.2401   7.5908   7.8376
     8.1151   8.4311

          k = 0.2500 0.2500-0.7445 (  5618 PWs)   bands (ev):

   -12.0979 -11.9549 -11.5470 -11.3216 -11.2351 -11.2324 -11.1677 -11.1654
   -11.1381 -11.1347  -8.3504  -8.0699  -6.7685  -6.5670   1.4858   2.0749
     3.8987   4.4074   4.4641   6.0556   6.3450   7.7137   7.7349   7.7753
     7.8297   7.9584

          k = 0.2500 0.2500-1.4890 (  5644 PWs)   bands (ev):

   -12.0375 -11.7201 -11.3389 -11.3199 -11.3122 -11.3078 -11.1990 -11.1658
   -11.1481 -11.1400  -9.2878  -8.0564  -8.0220  -6.8412   1.7902   3.9375
     5.0821   5.5257   6.4141   6.5477   6.6397   7.3105   7.5926   7.6908
     8.1406   8.4626

          k = 0.2500-0.5000 0.0000 (  5618 PWs)   bands (ev):

   -11.9006 -11.9006 -11.3270 -11.3270 -11.3167 -11.3167 -11.1810 -11.1810
   -11.1437 -11.1437  -8.7233  -8.7233  -7.4108  -7.4108   2.8779   2.8780
     5.6841   5.6841   5.9623   5.9623   7.0423   7.0423   7.6243   7.6243
     8.1879   8.1879

          k = 0.2500-0.5000-0.7445 (  5604 PWs)   bands (ev):

   -12.0406 -12.0406 -11.4276 -11.4276 -11.2329 -11.2329 -11.1655 -11.1655
   -11.1361 -11.1361  -8.1840  -8.1840  -6.6727  -6.6727   1.5327   1.5327
     4.1982   4.1982   5.0515   5.0515   7.4067   7.4067   7.9052   7.9052
     8.0266   8.0266

          k = 0.2500-0.5000 0.3722 (  5614 PWs)   bands (ev):

   -11.8370 -11.8370 -11.5315 -11.5315 -11.2534 -11.2534 -11.1885 -11.1885
   -11.1712 -11.1712  -8.4033  -8.4033  -7.0693  -7.0692   2.3004   2.3004
     4.7130   4.7130   5.5675   5.5675   7.0920   7.0920   7.7073   7.7073
     8.2208   8.2209

          k = 0.2500-0.5000-0.3722 (  5614 PWs)   bands (ev):

   -11.8370 -11.8370 -11.5315 -11.5315 -11.2534 -11.2534 -11.1885 -11.1885
   -11.1712 -11.1712  -8.4033  -8.4033  -7.0693  -7.0692   2.3004   2.3004
     4.7130   4.7130   5.5675   5.5675   7.0920   7.0920   7.7073   7.7073
     8.2208   8.2209

          k = 0.2500-0.5000-0.7445 (  5604 PWs)   bands (ev):

   -12.0406 -12.0406 -11.4276 -11.4276 -11.2329 -11.2329 -11.1655 -11.1655
   -11.1361 -11.1361  -8.1840  -8.1840  -6.6727  -6.6727   1.5327   1.5327
     4.1982   4.1982   5.0515   5.0515   7.4067   7.4067   7.9052   7.9052
     8.0266   8.0266

          k = 0.2500-0.5000-1.4890 (  5618 PWs)   bands (ev):

   -11.9006 -11.9006 -11.3270 -11.3270 -11.3167 -11.3167 -11.1810 -11.1810
   -11.1437 -11.1437  -8.7233  -8.7233  -7.4108  -7.4108   2.8779   2.8780
     5.6841   5.6841   5.9623   5.9623   7.0423   7.0423   7.6243   7.6243
     8.1879   8.1879

          k =-0.5000-0.5000 0.0000 (  5660 PWs)   bands (ev):

   -11.9293 -11.9293 -11.3230 -11.3230 -11.3209 -11.3209 -11.1795 -11.1795
   -11.1395 -11.1395  -8.1118  -8.1118  -8.0734  -8.0734   3.3760   3.3760
     5.1949   5.1949   6.0098   6.0098   7.0698   7.0698   7.5579   7.5579
     8.0637   8.0637

          k =-0.5000-0.5000-0.7445 (  5616 PWs)   bands (ev):

   -11.9595 -11.9595 -11.5515 -11.5515 -11.2309 -11.2309 -11.1655 -11.1655
   -11.1398 -11.1398  -7.9949  -7.9949  -6.8032  -6.8032   1.1759   1.1759
     4.1551   4.1551   6.3856   6.3856   6.4667   6.4667   8.0043   8.0043
     8.1493   8.1493

          k =-0.5000-0.5000 0.3722 (  5584 PWs)   bands (ev):

   -11.7262 -11.7262 -11.6753 -11.6753 -11.2527 -11.2527 -11.1894 -11.1894
   -11.1725 -11.1725  -8.0593  -8.0593  -7.4185  -7.4185   2.1830   2.1830
     5.2528   5.2528   5.7905   5.7905   6.2771   6.2771   8.0666   8.0666
     8.1061   8.1061

          k =-0.5000-0.5000-0.3722 (  5584 PWs)   bands (ev):

   -11.7262 -11.7262 -11.6753 -11.6753 -11.2527 -11.2527 -11.1894 -11.1894
   -11.1725 -11.1725  -8.0593  -8.0593  -7.4185  -7.4185   2.1830   2.1830
     5.2528   5.2528   5.7905   5.7905   6.2771   6.2771   8.0666   8.0666
     8.1061   8.1061

          k =-0.5000-0.5000-0.7445 (  5616 PWs)   bands (ev):

   -11.9595 -11.9595 -11.5515 -11.5515 -11.2309 -11.2309 -11.1655 -11.1655
   -11.1398 -11.1398  -7.9949  -7.9949  -6.8032  -6.8032   1.1759   1.1759
     4.1551   4.1551   6.3856   6.3856   6.4667   6.4667   8.0043   8.0043
     8.1493   8.1493

          k =-0.5000-0.5000-1.4890 (  5660 PWs)   bands (ev):

   -11.9293 -11.9293 -11.3230 -11.3230 -11.3209 -11.3209 -11.1795 -11.1795
   -11.1395 -11.1395  -8.1118  -8.1118  -8.0734  -8.0734   3.3760   3.3760
     5.1949   5.1949   6.0098   6.0098   7.0698   7.0698   7.5579   7.5579
     8.0637   8.0637

          k = 0.2500-0.2500 0.0000 (  5644 PWs)   bands (ev):

   -12.0375 -11.7201 -11.3389 -11.3199 -11.3122 -11.3078 -11.1990 -11.1658
   -11.1481 -11.1400  -9.2878  -8.0564  -8.0220  -6.8412   1.7902   3.9375
     5.0821   5.5257   6.4141   6.5477   6.6397   7.3105   7.5926   7.6908
     8.1406   8.4626

          k = 0.2500-0.2500-0.7445 (  5618 PWs)   bands (ev):

   -12.0979 -11.9549 -11.5470 -11.3216 -11.2351 -11.2324 -11.1677 -11.1654
   -11.1381 -11.1347  -8.3504  -8.0699  -6.7685  -6.5670   1.4858   2.0749
     3.8987   4.4074   4.4641   6.0556   6.3450   7.7137   7.7349   7.7753
     7.8297   7.9584

          k = 0.2500-0.2500 0.3722 (  5619 PWs)   bands (ev):

   -11.9181 -11.7073 -11.6720 -11.3993 -11.2635 -11.2417 -11.1954 -11.1827
   -11.1813 -11.1620  -8.9495  -7.8533  -7.3754  -6.7581   1.6761   3.0420
     4.3785   5.4140   5.5583   5.6169   6.1935   7.2401   7.5908   7.8376
     8.1151   8.4311

          k = 0.2500-0.2500-0.3722 (  5619 PWs)   bands (ev):

   -11.9181 -11.7073 -11.6720 -11.3993 -11.2635 -11.2417 -11.1954 -11.1827
   -11.1813 -11.1620  -8.9495  -7.8533  -7.3754  -6.7581   1.6761   3.0420
     4.3785   5.4140   5.5583   5.6169   6.1935   7.2401   7.5908   7.8376
     8.1151   8.4311

          k = 0.2500-0.2500-0.7445 (  5618 PWs)   bands (ev):

   -12.0979 -11.9549 -11.5470 -11.3216 -11.2351 -11.2324 -11.1677 -11.1654
   -11.1381 -11.1347  -8.3504  -8.0699  -6.7685  -6.5670   1.4858   2.0749
     3.8987   4.4074   4.4641   6.0556   6.3450   7.7137   7.7349   7.7753
     7.8297   7.9584

          k = 0.2500-0.2500-1.4890 (  5644 PWs)   bands (ev):

   -12.0375 -11.7201 -11.3389 -11.3199 -11.3122 -11.3078 -11.1990 -11.1658
   -11.1481 -11.1400  -9.2878  -8.0564  -8.0220  -6.8412   1.7902   3.9375
     5.0821   5.5257   6.4141   6.5477   6.6397   7.3105   7.5926   7.6908
     8.1406   8.4626

     highest occupied level (ev):     8.9050

     Writing output data file SnO2.save

     Phonon dispersions for Si                                                  

     bravais-lattice index     =            6
     lattice parameter (alat)  =       9.1370  a.u.
     unit-cell volume          =     512.3005 (a.u.)^3
     number of atoms/cell      =            6
     number of atomic types    =            2
     kinetic-energy cut-off    =      75.0000  Ry
     charge density cut-off    =     300.0000  Ry
     convergence threshold     =      1.0E-14
     beta                      =       0.7000
     number of iterations used =            4
     Exchange-correlation      = PBE ( 1  4  3  4 0 0)


     celldm(1)=    9.13703  celldm(2)=    1.00000  celldm(3)=    0.67160
     celldm(4)=    0.00000  celldm(5)=    0.00000  celldm(6)=    0.00000

     crystal axes: (cart. coord. in units of alat)
               a(1) = (  1.0000  0.0000  0.0000 )  
               a(2) = (  0.0000  1.0000  0.0000 )  
               a(3) = (  0.0000  0.0000  0.6716 )  

     reciprocal axes: (cart. coord. in units 2 pi/alat)
               b(1) = (  1.0000  0.0000  0.0000 )  
               b(2) = (  0.0000  1.0000  0.0000 )  
               b(3) = (  0.0000  0.0000  1.4890 )  


     Atoms inside the unit cell: 

     Cartesian axes

     site n.  atom      mass           positions (alat units)
        1     Sn 118.7100   tau(    1) = (   -0.00033   -0.00033    0.00000  )
        2     Sn 118.7100   tau(    2) = (    0.49967    0.49967    0.33580  )
        3     O   15.9990   tau(    3) = (    0.80637    0.19296    0.33580  )
        4     O   15.9990   tau(    4) = (    0.19296    0.80637    0.33580  )
        5     O   15.9990   tau(    5) = (    0.30637    0.30637    0.00000  )
        6     O   15.9990   tau(    6) = (    0.69296    0.69296    0.00000  )

     Computing dynamical matrix for 
                    q = (   0.0000000   0.0000000  -0.7444933 )
 
      5 Sym.Ops. (with q -> -q+G )


     G cutoff =  634.4127  (  11237 G-vectors)     FFT grid: ( 54, 54, 36)
     number of k points=    42

     PseudoPot. # 1 for Sn read from file:
     ../../../Pseudo_potentials/Sn_PBE.upf
     MD5 check sum: 78e6386ae56e929f0568ae8bf606a80c
     Pseudo is Norm-conserving + core correction, Zval = 14.0
     Generated using ONCVPSP code by D. R. Hamann
     Using radial grid of 1628 points,  6 beta functions with: 
                l(1) =   0
                l(2) =   0
                l(3) =   1
                l(4) =   1
                l(5) =   2
                l(6) =   2

     PseudoPot. # 2 for O  read from file:
     ../../../Pseudo_potentials/O_PBE.upf
     MD5 check sum: 3e3f909f7470e8921608ab6b1f57bbae
     Pseudo is Norm-conserving + core correction, Zval =  6.0
     Generated using ONCVPSP code by D. R. Hamann
     Using radial grid of  936 points,  5 beta functions with: 
                l(1) =   0
                l(2) =   0
                l(3) =   1
                l(4) =   1
                l(5) =   2

     Mode symmetry, C_2v (mm2)  point group:


     Atomic displacements:
     There are  18 irreducible representations

     Representation     1      1 modes -A_1  D_1  S_1  To be done

     Representation     2      1 modes -A_1  D_1  S_1  To be done

     Representation     3      1 modes -A_1  D_1  S_1  To be done

     Representation     4      1 modes -A_1  D_1  S_1  To be done

     Representation     5      1 modes -A_1  D_1  S_1  To be done

     Representation     6      1 modes -A_2  D_2  S_2  To be done

     Representation     7      1 modes -A_2  D_2  S_2  To be done

     Representation     8      1 modes -A_2  D_2  S_2  To be done

     Representation     9      1 modes -B_1  D_3  S_3  To be done

     Representation    10      1 modes -B_1  D_3  S_3  To be done

     Representation    11      1 modes -B_1  D_3  S_3  To be done

     Representation    12      1 modes -B_1  D_3  S_3  To be done

     Representation    13      1 modes -B_2  D_4  S_4  To be done

     Representation    14      1 modes -B_2  D_4  S_4  To be done

     Representation    15      1 modes -B_2  D_4  S_4  To be done

     Representation    16      1 modes -B_2  D_4  S_4  To be done

     Representation    17      1 modes -B_2  D_4  S_4  To be done

     Representation    18      1 modes -B_2  D_4  S_4  To be done



     Alpha used in Ewald sum =   2.7000
     PHONON       :     2h17m CPU        3h 4m WALL



     Representation #  1 mode #   1

     Self-consistent Calculation

      iter #   1 total cpu time : 11088.2 secs   av.it.:   7.1
      thresh= 1.000E-02 alpha_mix =  0.700 |ddv_scf|^2 =  2.907E-05

      iter #   2 total cpu time : 11098.8 secs   av.it.:  11.4
      thresh= 5.391E-04 alpha_mix =  0.700 |ddv_scf|^2 =  4.650E-05

      iter #   3 total cpu time : 11108.6 secs   av.it.:  10.5
      thresh= 6.819E-04 alpha_mix =  0.700 |ddv_scf|^2 =  1.406E-06

      iter #   4 total cpu time : 11119.5 secs   av.it.:  11.0
      thresh= 1.186E-04 alpha_mix =  0.700 |ddv_scf|^2 =  4.158E-08

      iter #   5 total cpu time : 11129.7 secs   av.it.:  11.2
      thresh= 2.039E-05 alpha_mix =  0.700 |ddv_scf|^2 =  4.153E-10

      iter #   6 total cpu time : 11140.8 secs   av.it.:  11.5
      thresh= 2.038E-06 alpha_mix =  0.700 |ddv_scf|^2 =  6.327E-11

      iter #   7 total cpu time : 11153.7 secs   av.it.:  11.7
      thresh= 7.954E-07 alpha_mix =  0.700 |ddv_scf|^2 =  1.004E-12

      iter #   8 total cpu time : 11165.4 secs   av.it.:  12.2
      thresh= 1.002E-07 alpha_mix =  0.700 |ddv_scf|^2 =  7.022E-14

      iter #   9 total cpu time : 11177.0 secs   av.it.:  12.0
      thresh= 2.650E-08 alpha_mix =  0.700 |ddv_scf|^2 =  2.935E-15

     End of self-consistent calculation

     Convergence has been achieved 


     Representation #  2 mode #   2

     Self-consistent Calculation

      iter #   1 total cpu time : 11187.1 secs   av.it.:   8.3
      thresh= 1.000E-02 alpha_mix =  0.700 |ddv_scf|^2 =  8.063E-05

      iter #   2 total cpu time : 11198.2 secs   av.it.:  12.0
      thresh= 8.980E-04 alpha_mix =  0.700 |ddv_scf|^2 =  1.811E-04

      iter #   3 total cpu time : 11208.3 secs   av.it.:  10.6
      thresh= 1.346E-03 alpha_mix =  0.700 |ddv_scf|^2 =  3.171E-06

      iter #   4 total cpu time : 11220.5 secs   av.it.:  11.3
      thresh= 1.781E-04 alpha_mix =  0.700 |ddv_scf|^2 =  3.234E-08

      iter #   5 total cpu time : 11232.7 secs   av.it.:  11.3
      thresh= 1.798E-05 alpha_mix =  0.700 |ddv_scf|^2 =  2.019E-09

      iter #   6 total cpu time : 11245.5 secs   av.it.:  11.9
      thresh= 4.493E-06 alpha_mix =  0.700 |ddv_scf|^2 =  7.501E-11

      iter #   7 total cpu time : 11257.1 secs   av.it.:  11.3
      thresh= 8.661E-07 alpha_mix =  0.700 |ddv_scf|^2 =  1.382E-12

      iter #   8 total cpu time : 11269.1 secs   av.it.:  12.0
      thresh= 1.175E-07 alpha_mix =  0.700 |ddv_scf|^2 =  7.279E-14

      iter #   9 total cpu time : 11281.5 secs   av.it.:  12.6
      thresh= 2.698E-08 alpha_mix =  0.700 |ddv_scf|^2 =  7.696E-15

     End of self-consistent calculation

     Convergence has been achieved 


     Representation #  3 mode #   3

     Self-consistent Calculation

      iter #   1 total cpu time : 11290.1 secs   av.it.:   7.7
      thresh= 1.000E-02 alpha_mix =  0.700 |ddv_scf|^2 =  1.451E-05

      iter #   2 total cpu time : 11301.2 secs   av.it.:  12.1
      thresh= 3.809E-04 alpha_mix =  0.700 |ddv_scf|^2 =  1.387E-05

      iter #   3 total cpu time : 11312.8 secs   av.it.:  11.4
      thresh= 3.724E-04 alpha_mix =  0.700 |ddv_scf|^2 =  2.170E-06

      iter #   4 total cpu time : 11325.3 secs   av.it.:  11.1
      thresh= 1.473E-04 alpha_mix =  0.700 |ddv_scf|^2 =  1.951E-09

      iter #   5 total cpu time : 11338.6 secs   av.it.:  11.8
      thresh= 4.417E-06 alpha_mix =  0.700 |ddv_scf|^2 =  1.800E-10

      iter #   6 total cpu time : 11349.4 secs   av.it.:  11.0
      thresh= 1.342E-06 alpha_mix =  0.700 |ddv_scf|^2 =  7.604E-13

      iter #   7 total cpu time : 11361.2 secs   av.it.:  12.2
      thresh= 8.720E-08 alpha_mix =  0.700 |ddv_scf|^2 =  3.828E-14

      iter #   8 total cpu time : 11373.8 secs   av.it.:  12.5
      thresh= 1.957E-08 alpha_mix =  0.700 |ddv_scf|^2 =  4.492E-14

      iter #   9 total cpu time : 11384.4 secs   av.it.:  11.0
      thresh= 2.119E-08 alpha_mix =  0.700 |ddv_scf|^2 =  2.483E-15

     End of self-consistent calculation

     Convergence has been achieved 


     Representation #  4 mode #   4

     Self-consistent Calculation

      iter #   1 total cpu time : 11393.9 secs   av.it.:   7.1
      thresh= 1.000E-02 alpha_mix =  0.700 |ddv_scf|^2 =  3.487E-06

      iter #   2 total cpu time : 11405.4 secs   av.it.:  12.7
      thresh= 1.867E-04 alpha_mix =  0.700 |ddv_scf|^2 =  1.133E-06

      iter #   3 total cpu time : 11418.0 secs   av.it.:  12.6
      thresh= 1.064E-04 alpha_mix =  0.700 |ddv_scf|^2 =  3.520E-07

      iter #   4 total cpu time : 11428.7 secs   av.it.:  10.9
      thresh= 5.933E-05 alpha_mix =  0.700 |ddv_scf|^2 =  8.652E-09

      iter #   5 total cpu time : 11441.4 secs   av.it.:  12.0
      thresh= 9.302E-06 alpha_mix =  0.700 |ddv_scf|^2 =  6.624E-11

      iter #   6 total cpu time : 11453.8 secs   av.it.:  13.0
      thresh= 8.139E-07 alpha_mix =  0.700 |ddv_scf|^2 =  1.124E-10

      iter #   7 total cpu time : 11464.7 secs   av.it.:  11.6
      thresh= 1.060E-06 alpha_mix =  0.700 |ddv_scf|^2 =  7.378E-12

      iter #   8 total cpu time : 11477.3 secs   av.it.:  12.2
      thresh= 2.716E-07 alpha_mix =  0.700 |ddv_scf|^2 =  6.879E-13

      iter #   9 total cpu time : 11490.0 secs   av.it.:  12.6
      thresh= 8.294E-08 alpha_mix =  0.700 |ddv_scf|^2 =  1.315E-13

      iter #  10 total cpu time : 11501.1 secs   av.it.:  11.6
      thresh= 3.626E-08 alpha_mix =  0.700 |ddv_scf|^2 =  2.564E-14

      iter #  11 total cpu time : 11512.9 secs   av.it.:  11.7
      thresh= 1.601E-08 alpha_mix =  0.700 |ddv_scf|^2 =  1.887E-15

     End of self-consistent calculation

     Convergence has been achieved 


     Representation #  5 mode #   5

     Self-consistent Calculation

      iter #   1 total cpu time : 11522.2 secs   av.it.:   7.1
      thresh= 1.000E-02 alpha_mix =  0.700 |ddv_scf|^2 =  3.487E-06

      iter #   2 total cpu time : 11533.9 secs   av.it.:  12.7
      thresh= 1.867E-04 alpha_mix =  0.700 |ddv_scf|^2 =  1.133E-06

      iter #   3 total cpu time : 11545.6 secs   av.it.:  12.6
      thresh= 1.064E-04 alpha_mix =  0.700 |ddv_scf|^2 =  3.520E-07

      iter #   4 total cpu time : 11557.0 secs   av.it.:  10.9
      thresh= 5.933E-05 alpha_mix =  0.700 |ddv_scf|^2 =  8.653E-09

      iter #   5 total cpu time : 11569.2 secs   av.it.:  12.0
      thresh= 9.302E-06 alpha_mix =  0.700 |ddv_scf|^2 =  6.623E-11

      iter #   6 total cpu time : 11582.2 secs   av.it.:  13.0
      thresh= 8.138E-07 alpha_mix =  0.700 |ddv_scf|^2 =  1.124E-10

      iter #   7 total cpu time : 11592.9 secs   av.it.:  11.6
      thresh= 1.060E-06 alpha_mix =  0.700 |ddv_scf|^2 =  7.378E-12

      iter #   8 total cpu time : 11605.5 secs   av.it.:  12.2
      thresh= 2.716E-07 alpha_mix =  0.700 |ddv_scf|^2 =  6.878E-13

      iter #   9 total cpu time : 11617.7 secs   av.it.:  12.6
      thresh= 8.293E-08 alpha_mix =  0.700 |ddv_scf|^2 =  1.314E-13

      iter #  10 total cpu time : 11628.4 secs   av.it.:  11.6
      thresh= 3.626E-08 alpha_mix =  0.700 |ddv_scf|^2 =  2.564E-14

      iter #  11 total cpu time : 11638.9 secs   av.it.:  11.7
      thresh= 1.601E-08 alpha_mix =  0.700 |ddv_scf|^2 =  1.887E-15

     End of self-consistent calculation

     Convergence has been achieved 


     Representation #  6 mode #   6

     Self-consistent Calculation

      iter #   1 total cpu time : 11649.3 secs   av.it.:   6.4
      thresh= 1.000E-02 alpha_mix =  0.700 |ddv_scf|^2 =  2.545E-06

      iter #   2 total cpu time : 11661.6 secs   av.it.:  12.0
      thresh= 1.595E-04 alpha_mix =  0.700 |ddv_scf|^2 =  8.794E-08

      iter #   3 total cpu time : 11673.6 secs   av.it.:  12.5
      thresh= 2.966E-05 alpha_mix =  0.700 |ddv_scf|^2 =  4.919E-08

      iter #   4 total cpu time : 11684.9 secs   av.it.:  11.1
      thresh= 2.218E-05 alpha_mix =  0.700 |ddv_scf|^2 =  1.295E-09

      iter #   5 total cpu time : 11697.2 secs   av.it.:  12.1
      thresh= 3.599E-06 alpha_mix =  0.700 |ddv_scf|^2 =  8.591E-11

      iter #   6 total cpu time : 11708.0 secs   av.it.:  12.4
      thresh= 9.269E-07 alpha_mix =  0.700 |ddv_scf|^2 =  4.954E-13

      iter #   7 total cpu time : 11719.3 secs   av.it.:  11.7
      thresh= 7.039E-08 alpha_mix =  0.700 |ddv_scf|^2 =  2.329E-14

      iter #   8 total cpu time : 11731.0 secs   av.it.:  11.8
      thresh= 1.526E-08 alpha_mix =  0.700 |ddv_scf|^2 =  8.563E-16

     End of self-consistent calculation

     Convergence has been achieved 


     Representation #  7 mode #   7

     Self-consistent Calculation

      iter #   1 total cpu time : 11740.6 secs   av.it.:   7.7
      thresh= 1.000E-02 alpha_mix =  0.700 |ddv_scf|^2 =  1.451E-05

      iter #   2 total cpu time : 11754.0 secs   av.it.:  12.1
      thresh= 3.809E-04 alpha_mix =  0.700 |ddv_scf|^2 =  1.387E-05

      iter #   3 total cpu time : 11764.5 secs   av.it.:  11.3
      thresh= 3.724E-04 alpha_mix =  0.700 |ddv_scf|^2 =  2.170E-06

      iter #   4 total cpu time : 11774.5 secs   av.it.:  11.1
      thresh= 1.473E-04 alpha_mix =  0.700 |ddv_scf|^2 =  1.951E-09

      iter #   5 total cpu time : 11785.0 secs   av.it.:  11.8
      thresh= 4.417E-06 alpha_mix =  0.700 |ddv_scf|^2 =  1.800E-10

      iter #   6 total cpu time : 11796.4 secs   av.it.:  10.9
      thresh= 1.342E-06 alpha_mix =  0.700 |ddv_scf|^2 =  7.585E-13

      iter #   7 total cpu time : 11807.3 secs   av.it.:  12.0
      thresh= 8.709E-08 alpha_mix =  0.700 |ddv_scf|^2 =  3.095E-14

      iter #   8 total cpu time : 11820.5 secs   av.it.:  11.4
      thresh= 1.759E-08 alpha_mix =  0.700 |ddv_scf|^2 =  1.149E-15

     End of self-consistent calculation

     Convergence has been achieved 


     Representation #  8 mode #   8

     Self-consistent Calculation

      iter #   1 total cpu time : 11829.5 secs   av.it.:   6.9
      thresh= 1.000E-02 alpha_mix =  0.700 |ddv_scf|^2 =  2.052E-06

      iter #   2 total cpu time : 11841.5 secs   av.it.:  12.5
      thresh= 1.432E-04 alpha_mix =  0.700 |ddv_scf|^2 =  4.755E-07

      iter #   3 total cpu time : 11853.3 secs   av.it.:  12.0
      thresh= 6.896E-05 alpha_mix =  0.700 |ddv_scf|^2 =  2.691E-07

      iter #   4 total cpu time : 11864.2 secs   av.it.:  10.8
      thresh= 5.187E-05 alpha_mix =  0.700 |ddv_scf|^2 =  6.020E-09

      iter #   5 total cpu time : 11875.0 secs   av.it.:  12.0
      thresh= 7.759E-06 alpha_mix =  0.700 |ddv_scf|^2 =  3.088E-11

      iter #   6 total cpu time : 11886.3 secs   av.it.:  12.2
      thresh= 5.557E-07 alpha_mix =  0.700 |ddv_scf|^2 =  5.579E-13

      iter #   7 total cpu time : 11899.4 secs   av.it.:  12.1
      thresh= 7.469E-08 alpha_mix =  0.700 |ddv_scf|^2 =  1.484E-14

      iter #   8 total cpu time : 11910.5 secs   av.it.:  12.1
      thresh= 1.218E-08 alpha_mix =  0.700 |ddv_scf|^2 =  7.507E-16

     End of self-consistent calculation

     Convergence has been achieved 


     Representation #  9 mode #   9

     Self-consistent Calculation

      iter #   1 total cpu time : 11920.2 secs   av.it.:   6.4
      thresh= 1.000E-02 alpha_mix =  0.700 |ddv_scf|^2 =  2.189E-06

      iter #   2 total cpu time : 11930.9 secs   av.it.:  12.0
      thresh= 1.479E-04 alpha_mix =  0.700 |ddv_scf|^2 =  4.093E-08

      iter #   3 total cpu time : 11941.8 secs   av.it.:  12.1
      thresh= 2.023E-05 alpha_mix =  0.700 |ddv_scf|^2 =  2.480E-10

      iter #   4 total cpu time : 11955.3 secs   av.it.:  12.2
      thresh= 1.575E-06 alpha_mix =  0.700 |ddv_scf|^2 =  1.354E-11

      iter #   5 total cpu time : 11966.6 secs   av.it.:  12.4
      thresh= 3.680E-07 alpha_mix =  0.700 |ddv_scf|^2 =  1.404E-12

      iter #   6 total cpu time : 11978.8 secs   av.it.:  12.1
      thresh= 1.185E-07 alpha_mix =  0.700 |ddv_scf|^2 =  4.291E-14

      iter #   7 total cpu time : 11990.1 secs   av.it.:  12.4
      thresh= 2.071E-08 alpha_mix =  0.700 |ddv_scf|^2 =  1.708E-15

     End of self-consistent calculation

     Convergence has been achieved 


     Representation # 10 mode #  10

     Self-consistent Calculation

      iter #   1 total cpu time : 11997.6 secs   av.it.:   6.9
      thresh= 1.000E-02 alpha_mix =  0.700 |ddv_scf|^2 =  4.191E-06

      iter #   2 total cpu time : 12009.5 secs   av.it.:  12.2
      thresh= 2.047E-04 alpha_mix =  0.700 |ddv_scf|^2 =  7.896E-07

      iter #   3 total cpu time : 12020.8 secs   av.it.:  11.7
      thresh= 8.886E-05 alpha_mix =  0.700 |ddv_scf|^2 =  7.216E-09

      iter #   4 total cpu time : 12033.1 secs   av.it.:  11.6
      thresh= 8.494E-06 alpha_mix =  0.700 |ddv_scf|^2 =  7.885E-11

      iter #   5 total cpu time : 12045.1 secs   av.it.:  12.0
      thresh= 8.880E-07 alpha_mix =  0.700 |ddv_scf|^2 =  1.321E-12

      iter #   6 total cpu time : 12055.7 secs   av.it.:  11.7
      thresh= 1.149E-07 alpha_mix =  0.700 |ddv_scf|^2 =  2.664E-14

      iter #   7 total cpu time : 12067.0 secs   av.it.:  11.3
      thresh= 1.632E-08 alpha_mix =  0.700 |ddv_scf|^2 =  1.631E-15

     End of self-consistent calculation

     Convergence has been achieved 


     Representation # 11 mode #  11

     Self-consistent Calculation

      iter #   1 total cpu time : 12075.6 secs   av.it.:   6.4
      thresh= 1.000E-02 alpha_mix =  0.700 |ddv_scf|^2 =  2.189E-06

      iter #   2 total cpu time : 12086.3 secs   av.it.:  12.0
      thresh= 1.479E-04 alpha_mix =  0.700 |ddv_scf|^2 =  4.093E-08

      iter #   3 total cpu time : 12097.4 secs   av.it.:  12.1
      thresh= 2.023E-05 alpha_mix =  0.700 |ddv_scf|^2 =  2.480E-10

      iter #   4 total cpu time : 12109.3 secs   av.it.:  12.2
      thresh= 1.575E-06 alpha_mix =  0.700 |ddv_scf|^2 =  1.355E-11

      iter #   5 total cpu time : 12121.6 secs   av.it.:  12.5
      thresh= 3.681E-07 alpha_mix =  0.700 |ddv_scf|^2 =  1.405E-12

      iter #   6 total cpu time : 12133.4 secs   av.it.:  12.1
      thresh= 1.185E-07 alpha_mix =  0.700 |ddv_scf|^2 =  4.290E-14

      iter #   7 total cpu time : 12146.0 secs   av.it.:  12.4
      thresh= 2.071E-08 alpha_mix =  0.700 |ddv_scf|^2 =  1.708E-15

     End of self-consistent calculation

     Convergence has been achieved 


     Representation # 12 mode #  12

     Self-consistent Calculation

      iter #   1 total cpu time : 12154.4 secs   av.it.:   7.6
      thresh= 1.000E-02 alpha_mix =  0.700 |ddv_scf|^2 =  1.309E-05

      iter #   2 total cpu time : 12165.6 secs   av.it.:  12.2
      thresh= 3.618E-04 alpha_mix =  0.700 |ddv_scf|^2 =  4.301E-06

      iter #   3 total cpu time : 12176.8 secs   av.it.:  11.4
      thresh= 2.074E-04 alpha_mix =  0.700 |ddv_scf|^2 =  2.317E-09

      iter #   4 total cpu time : 12189.3 secs   av.it.:  12.0
      thresh= 4.813E-06 alpha_mix =  0.700 |ddv_scf|^2 =  8.283E-11

      iter #   5 total cpu time : 12201.1 secs   av.it.:  12.1
      thresh= 9.101E-07 alpha_mix =  0.700 |ddv_scf|^2 =  7.655E-12

      iter #   6 total cpu time : 12213.3 secs   av.it.:  11.8
      thresh= 2.767E-07 alpha_mix =  0.700 |ddv_scf|^2 =  5.541E-14

      iter #   7 total cpu time : 12224.8 secs   av.it.:  11.3
      thresh= 2.354E-08 alpha_mix =  0.700 |ddv_scf|^2 =  4.315E-15

     End of self-consistent calculation

     Convergence has been achieved 


     Representation # 13 mode #  13

     Self-consistent Calculation

      iter #   1 total cpu time : 12235.3 secs   av.it.:   8.3
      thresh= 1.000E-02 alpha_mix =  0.700 |ddv_scf|^2 =  8.063E-05

      iter #   2 total cpu time : 12246.5 secs   av.it.:  12.0
      thresh= 8.979E-04 alpha_mix =  0.700 |ddv_scf|^2 =  1.811E-04

      iter #   3 total cpu time : 12256.4 secs   av.it.:  10.6
      thresh= 1.346E-03 alpha_mix =  0.700 |ddv_scf|^2 =  3.171E-06

      iter #   4 total cpu time : 12269.0 secs   av.it.:  11.3
      thresh= 1.781E-04 alpha_mix =  0.700 |ddv_scf|^2 =  3.233E-08

      iter #   5 total cpu time : 12281.0 secs   av.it.:  11.3
      thresh= 1.798E-05 alpha_mix =  0.700 |ddv_scf|^2 =  2.020E-09

      iter #   6 total cpu time : 12293.0 secs   av.it.:  11.9
      thresh= 4.494E-06 alpha_mix =  0.700 |ddv_scf|^2 =  7.503E-11

      iter #   7 total cpu time : 12304.9 secs   av.it.:  11.3
      thresh= 8.662E-07 alpha_mix =  0.700 |ddv_scf|^2 =  1.382E-12

      iter #   8 total cpu time : 12317.1 secs   av.it.:  11.8
      thresh= 1.175E-07 alpha_mix =  0.700 |ddv_scf|^2 =  7.121E-14

      iter #   9 total cpu time : 12329.3 secs   av.it.:  12.3
      thresh= 2.669E-08 alpha_mix =  0.700 |ddv_scf|^2 =  4.958E-15

     End of self-consistent calculation

     Convergence has been achieved 


     Representation # 14 mode #  14

     Self-consistent Calculation

      iter #   1 total cpu time : 12337.7 secs   av.it.:   7.3
      thresh= 1.000E-02 alpha_mix =  0.700 |ddv_scf|^2 =  1.663E-05

      iter #   2 total cpu time : 12349.4 secs   av.it.:  12.1
      thresh= 4.077E-04 alpha_mix =  0.700 |ddv_scf|^2 =  2.363E-05

      iter #   3 total cpu time : 12360.4 secs   av.it.:  11.0
      thresh= 4.861E-04 alpha_mix =  0.700 |ddv_scf|^2 =  1.016E-06

      iter #   4 total cpu time : 12371.4 secs   av.it.:  11.6
      thresh= 1.008E-04 alpha_mix =  0.700 |ddv_scf|^2 =  5.028E-08

      iter #   5 total cpu time : 12382.4 secs   av.it.:  11.5
      thresh= 2.242E-05 alpha_mix =  0.700 |ddv_scf|^2 =  2.537E-10

      iter #   6 total cpu time : 12393.8 secs   av.it.:  12.7
      thresh= 1.593E-06 alpha_mix =  0.700 |ddv_scf|^2 =  6.038E-11

      iter #   7 total cpu time : 12405.5 secs   av.it.:  12.1
      thresh= 7.770E-07 alpha_mix =  0.700 |ddv_scf|^2 =  8.549E-13

      iter #   8 total cpu time : 12417.6 secs   av.it.:  12.6
      thresh= 9.246E-08 alpha_mix =  0.700 |ddv_scf|^2 =  4.050E-14

      iter #   9 total cpu time : 12428.2 secs   av.it.:  11.8
      thresh= 2.012E-08 alpha_mix =  0.700 |ddv_scf|^2 =  1.537E-15

     End of self-consistent calculation

     Convergence has been achieved 


     Representation # 15 mode #  15

     Self-consistent Calculation

      iter #   1 total cpu time : 12435.4 secs   av.it.:   6.3
      thresh= 1.000E-02 alpha_mix =  0.700 |ddv_scf|^2 =  1.796E-06

      iter #   2 total cpu time : 12446.5 secs   av.it.:  11.8
      thresh= 1.340E-04 alpha_mix =  0.700 |ddv_scf|^2 =  3.330E-08

      iter #   3 total cpu time : 12457.7 secs   av.it.:  12.6
      thresh= 1.825E-05 alpha_mix =  0.700 |ddv_scf|^2 =  5.299E-09

      iter #   4 total cpu time : 12469.2 secs   av.it.:  11.7
[...]
      thresh= 1.323E-05 alpha_mix =  0.700 |ddv_scf|^2 =  2.134E-10

      iter #   5 total cpu time : 21337.4 secs   av.it.:  12.3
      thresh= 1.461E-06 alpha_mix =  0.700 |ddv_scf|^2 =  4.131E-12

      iter #   6 total cpu time : 21349.3 secs   av.it.:  12.3
      thresh= 2.033E-07 alpha_mix =  0.700 |ddv_scf|^2 =  1.068E-13

      iter #   7 total cpu time : 21360.3 secs   av.it.:  11.8
      thresh= 3.268E-08 alpha_mix =  0.700 |ddv_scf|^2 =  9.215E-15

     End of self-consistent calculation

     Convergence has been achieved 


     Representation # 10 mode #  10

     Self-consistent Calculation

      iter #   1 total cpu time : 21367.8 secs   av.it.:   7.0
      thresh= 1.000E-02 alpha_mix =  0.700 |ddv_scf|^2 =  7.111E-06

      iter #   2 total cpu time : 21379.0 secs   av.it.:  12.0
      thresh= 2.667E-04 alpha_mix =  0.700 |ddv_scf|^2 =  2.635E-06

      iter #   3 total cpu time : 21391.3 secs   av.it.:  11.3
      thresh= 1.623E-04 alpha_mix =  0.700 |ddv_scf|^2 =  6.218E-09

      iter #   4 total cpu time : 21403.2 secs   av.it.:  12.0
      thresh= 7.886E-06 alpha_mix =  0.700 |ddv_scf|^2 =  2.238E-10

      iter #   5 total cpu time : 21414.2 secs   av.it.:  11.9
      thresh= 1.496E-06 alpha_mix =  0.700 |ddv_scf|^2 =  3.217E-12

      iter #   6 total cpu time : 21425.1 secs   av.it.:  12.0
      thresh= 1.794E-07 alpha_mix =  0.700 |ddv_scf|^2 =  5.895E-14

      iter #   7 total cpu time : 21435.5 secs   av.it.:  11.4
      thresh= 2.428E-08 alpha_mix =  0.700 |ddv_scf|^2 =  4.666E-15

     End of self-consistent calculation

     Convergence has been achieved 


     Representation # 11 mode #  11

     Self-consistent Calculation

      iter #   1 total cpu time : 21442.9 secs   av.it.:   6.7
      thresh= 1.000E-02 alpha_mix =  0.700 |ddv_scf|^2 =  3.508E-06

      iter #   2 total cpu time : 21454.4 secs   av.it.:  12.1
      thresh= 1.873E-04 alpha_mix =  0.700 |ddv_scf|^2 =  6.780E-07

      iter #   3 total cpu time : 21465.1 secs   av.it.:  11.8
      thresh= 8.234E-05 alpha_mix =  0.700 |ddv_scf|^2 =  1.749E-08

      iter #   4 total cpu time : 21477.2 secs   av.it.:  12.1
      thresh= 1.323E-05 alpha_mix =  0.700 |ddv_scf|^2 =  2.133E-10

      iter #   5 total cpu time : 21489.7 secs   av.it.:  12.3
      thresh= 1.461E-06 alpha_mix =  0.700 |ddv_scf|^2 =  4.132E-12

      iter #   6 total cpu time : 21501.4 secs   av.it.:  12.3
      thresh= 2.033E-07 alpha_mix =  0.700 |ddv_scf|^2 =  1.068E-13

      iter #   7 total cpu time : 21512.9 secs   av.it.:  11.8
      thresh= 3.268E-08 alpha_mix =  0.700 |ddv_scf|^2 =  9.216E-15

     End of self-consistent calculation

     Convergence has been achieved 


     Representation # 12 mode #  12

     Self-consistent Calculation

      iter #   1 total cpu time : 21522.7 secs   av.it.:   7.6
      thresh= 1.000E-02 alpha_mix =  0.700 |ddv_scf|^2 =  2.012E-05

      iter #   2 total cpu time : 21533.7 secs   av.it.:  12.1
      thresh= 4.485E-04 alpha_mix =  0.700 |ddv_scf|^2 =  1.072E-05

      iter #   3 total cpu time : 21544.9 secs   av.it.:  11.3
      thresh= 3.274E-04 alpha_mix =  0.700 |ddv_scf|^2 =  3.700E-09

      iter #   4 total cpu time : 21557.6 secs   av.it.:  11.8
      thresh= 6.083E-06 alpha_mix =  0.700 |ddv_scf|^2 =  3.475E-10

      iter #   5 total cpu time : 21569.2 secs   av.it.:  11.8
      thresh= 1.864E-06 alpha_mix =  0.700 |ddv_scf|^2 =  1.068E-11

      iter #   6 total cpu time : 21581.1 secs   av.it.:  11.5
      thresh= 3.268E-07 alpha_mix =  0.700 |ddv_scf|^2 =  7.715E-14

      iter #   7 total cpu time : 21592.8 secs   av.it.:  11.4
      thresh= 2.778E-08 alpha_mix =  0.700 |ddv_scf|^2 =  5.170E-15

     End of self-consistent calculation

     Convergence has been achieved 


     Representation # 13 mode #  13

     Self-consistent Calculation

      iter #   1 total cpu time : 21602.8 secs   av.it.:   8.1
      thresh= 1.000E-02 alpha_mix =  0.700 |ddv_scf|^2 =  3.892E-05

      iter #   2 total cpu time : 21614.9 secs   av.it.:  12.3
      thresh= 6.238E-04 alpha_mix =  0.700 |ddv_scf|^2 =  4.609E-05

      iter #   3 total cpu time : 21626.2 secs   av.it.:  11.3
      thresh= 6.789E-04 alpha_mix =  0.700 |ddv_scf|^2 =  1.956E-06

      iter #   4 total cpu time : 21636.6 secs   av.it.:  11.2
      thresh= 1.399E-04 alpha_mix =  0.700 |ddv_scf|^2 =  2.333E-08

      iter #   5 total cpu time : 21648.9 secs   av.it.:  11.3
      thresh= 1.527E-05 alpha_mix =  0.700 |ddv_scf|^2 =  5.818E-10

      iter #   6 total cpu time : 21660.4 secs   av.it.:  12.2
      thresh= 2.412E-06 alpha_mix =  0.700 |ddv_scf|^2 =  9.462E-11

      iter #   7 total cpu time : 21670.4 secs   av.it.:  11.1
      thresh= 9.728E-07 alpha_mix =  0.700 |ddv_scf|^2 =  1.058E-12

      iter #   8 total cpu time : 21680.9 secs   av.it.:  11.7
      thresh= 1.029E-07 alpha_mix =  0.700 |ddv_scf|^2 =  1.125E-14

      iter #   9 total cpu time : 21693.4 secs   av.it.:  12.2
      thresh= 1.061E-08 alpha_mix =  0.700 |ddv_scf|^2 =  1.523E-15

     End of self-consistent calculation

     Convergence has been achieved 


     Representation # 14 mode #  14

     Self-consistent Calculation

      iter #   1 total cpu time : 21703.7 secs   av.it.:   7.1
      thresh= 1.000E-02 alpha_mix =  0.700 |ddv_scf|^2 =  8.250E-06

      iter #   2 total cpu time : 21715.6 secs   av.it.:  12.5
      thresh= 2.872E-04 alpha_mix =  0.700 |ddv_scf|^2 =  3.803E-06

      iter #   3 total cpu time : 21727.3 secs   av.it.:  11.9
      thresh= 1.950E-04 alpha_mix =  0.700 |ddv_scf|^2 =  7.298E-08

      iter #   4 total cpu time : 21741.9 secs   av.it.:  12.1
      thresh= 2.701E-05 alpha_mix =  0.700 |ddv_scf|^2 =  1.984E-08

      iter #   5 total cpu time : 21753.0 secs   av.it.:  11.5
      thresh= 1.408E-05 alpha_mix =  0.700 |ddv_scf|^2 =  4.953E-10

      iter #   6 total cpu time : 21765.3 secs   av.it.:  12.3
      thresh= 2.225E-06 alpha_mix =  0.700 |ddv_scf|^2 =  3.671E-11

      iter #   7 total cpu time : 21777.8 secs   av.it.:  12.4
      thresh= 6.059E-07 alpha_mix =  0.700 |ddv_scf|^2 =  1.996E-12

      iter #   8 total cpu time : 21790.0 secs   av.it.:  12.8
      thresh= 1.413E-07 alpha_mix =  0.700 |ddv_scf|^2 =  4.371E-13

      iter #   9 total cpu time : 21801.3 secs   av.it.:  12.2
      thresh= 6.611E-08 alpha_mix =  0.700 |ddv_scf|^2 =  3.699E-14

      iter #  10 total cpu time : 21813.1 secs   av.it.:  12.3
      thresh= 1.923E-08 alpha_mix =  0.700 |ddv_scf|^2 =  7.063E-16

     End of self-consistent calculation

     Convergence has been achieved 


     Representation # 15 mode #  15

     Self-consistent Calculation

      iter #   1 total cpu time : 21823.4 secs   av.it.:   6.8
      thresh= 1.000E-02 alpha_mix =  0.700 |ddv_scf|^2 =  5.649E-06

      iter #   2 total cpu time : 21835.1 secs   av.it.:  12.0
      thresh= 2.377E-04 alpha_mix =  0.700 |ddv_scf|^2 =  1.356E-06

      iter #   3 total cpu time : 21846.2 secs   av.it.:  11.7
      thresh= 1.164E-04 alpha_mix =  0.700 |ddv_scf|^2 =  2.044E-08

      iter #   4 total cpu time : 21859.2 secs   av.it.:  12.5
      thresh= 1.430E-05 alpha_mix =  0.700 |ddv_scf|^2 =  2.218E-09

      iter #   5 total cpu time : 21869.8 secs   av.it.:  11.6
      thresh= 4.710E-06 alpha_mix =  0.700 |ddv_scf|^2 =  4.075E-10

      iter #   6 total cpu time : 21881.6 secs   av.it.:  12.0
      thresh= 2.019E-06 alpha_mix =  0.700 |ddv_scf|^2 =  4.662E-12

      iter #   7 total cpu time : 21893.9 secs   av.it.:  12.6
      thresh= 2.159E-07 alpha_mix =  0.700 |ddv_scf|^2 =  1.478E-12

      iter #   8 total cpu time : 21905.4 secs   av.it.:  12.0
      thresh= 1.216E-07 alpha_mix =  0.700 |ddv_scf|^2 =  1.533E-14

      iter #   9 total cpu time : 21917.6 secs   av.it.:  12.4
      thresh= 1.238E-08 alpha_mix =  0.700 |ddv_scf|^2 =  1.929E-15

     End of self-consistent calculation

     Convergence has been achieved 


     Representation # 16 mode #  16

     Self-consistent Calculation

      iter #   1 total cpu time : 21927.7 secs   av.it.:   7.1
      thresh= 1.000E-02 alpha_mix =  0.700 |ddv_scf|^2 =  8.562E-06

      iter #   2 total cpu time : 21938.9 secs   av.it.:  12.2
      thresh= 2.926E-04 alpha_mix =  0.700 |ddv_scf|^2 =  5.904E-06

      iter #   3 total cpu time : 21949.6 secs   av.it.:  11.5
      thresh= 2.430E-04 alpha_mix =  0.700 |ddv_scf|^2 =  2.027E-07

      iter #   4 total cpu time : 21960.5 secs   av.it.:  11.2
      thresh= 4.502E-05 alpha_mix =  0.700 |ddv_scf|^2 =  3.046E-08

      iter #   5 total cpu time : 21972.6 secs   av.it.:  11.2
      thresh= 1.745E-05 alpha_mix =  0.700 |ddv_scf|^2 =  1.118E-10

      iter #   6 total cpu time : 21984.6 secs   av.it.:  12.2
      thresh= 1.057E-06 alpha_mix =  0.700 |ddv_scf|^2 =  6.490E-12

      iter #   7 total cpu time : 21997.9 secs   av.it.:  12.8
      thresh= 2.547E-07 alpha_mix =  0.700 |ddv_scf|^2 =  7.559E-13

      iter #   8 total cpu time : 22009.6 secs   av.it.:  12.5
      thresh= 8.694E-08 alpha_mix =  0.700 |ddv_scf|^2 =  1.765E-14

      iter #   9 total cpu time : 22021.4 secs   av.it.:  12.4
      thresh= 1.329E-08 alpha_mix =  0.700 |ddv_scf|^2 =  4.754E-15

     End of self-consistent calculation

     Convergence has been achieved 


     Representation # 17 mode #  17

     Self-consistent Calculation

      iter #   1 total cpu time : 22029.3 secs   av.it.:   7.6
      thresh= 1.000E-02 alpha_mix =  0.700 |ddv_scf|^2 =  2.012E-05

      iter #   2 total cpu time : 22040.2 secs   av.it.:  12.1
      thresh= 4.485E-04 alpha_mix =  0.700 |ddv_scf|^2 =  1.072E-05

      iter #   3 total cpu time : 22051.0 secs   av.it.:  11.3
      thresh= 3.274E-04 alpha_mix =  0.700 |ddv_scf|^2 =  3.698E-09

      iter #   4 total cpu time : 22062.2 secs   av.it.:  11.8
      thresh= 6.081E-06 alpha_mix =  0.700 |ddv_scf|^2 =  3.475E-10

      iter #   5 total cpu time : 22073.4 secs   av.it.:  12.0
      thresh= 1.864E-06 alpha_mix =  0.700 |ddv_scf|^2 =  1.075E-11

      iter #   6 total cpu time : 22085.8 secs   av.it.:  12.0
      thresh= 3.279E-07 alpha_mix =  0.700 |ddv_scf|^2 =  4.623E-13

      iter #   7 total cpu time : 22097.6 secs   av.it.:  12.5
      thresh= 6.799E-08 alpha_mix =  0.700 |ddv_scf|^2 =  9.747E-13

      iter #   8 total cpu time : 22108.5 secs   av.it.:  11.2
      thresh= 9.873E-08 alpha_mix =  0.700 |ddv_scf|^2 =  4.691E-15

     End of self-consistent calculation

     Convergence has been achieved 


     Representation # 18 mode #  18

     Self-consistent Calculation

      iter #   1 total cpu time : 22120.2 secs   av.it.:   7.1
      thresh= 1.000E-02 alpha_mix =  0.700 |ddv_scf|^2 =  8.250E-06

      iter #   2 total cpu time : 22131.9 secs   av.it.:  12.5
      thresh= 2.872E-04 alpha_mix =  0.700 |ddv_scf|^2 =  3.803E-06

      iter #   3 total cpu time : 22142.9 secs   av.it.:  11.9
      thresh= 1.950E-04 alpha_mix =  0.700 |ddv_scf|^2 =  7.298E-08

      iter #   4 total cpu time : 22154.9 secs   av.it.:  12.0
      thresh= 2.702E-05 alpha_mix =  0.700 |ddv_scf|^2 =  1.984E-08

      iter #   5 total cpu time : 22166.1 secs   av.it.:  11.5
      thresh= 1.409E-05 alpha_mix =  0.700 |ddv_scf|^2 =  4.953E-10

      iter #   6 total cpu time : 22177.0 secs   av.it.:  12.3
      thresh= 2.226E-06 alpha_mix =  0.700 |ddv_scf|^2 =  3.671E-11

      iter #   7 total cpu time : 22189.6 secs   av.it.:  12.4
      thresh= 6.059E-07 alpha_mix =  0.700 |ddv_scf|^2 =  1.997E-12

      iter #   8 total cpu time : 22202.3 secs   av.it.:  12.8
      thresh= 1.413E-07 alpha_mix =  0.700 |ddv_scf|^2 =  4.372E-13

      iter #   9 total cpu time : 22213.6 secs   av.it.:  12.2
      thresh= 6.612E-08 alpha_mix =  0.700 |ddv_scf|^2 =  3.699E-14

      iter #  10 total cpu time : 22225.3 secs   av.it.:  12.3
      thresh= 1.923E-08 alpha_mix =  0.700 |ddv_scf|^2 =  7.059E-16

     End of self-consistent calculation

     Convergence has been achieved 
 
     Number of q in the star =    1
     List of q in the star:
          1  -0.500000000  -0.500000000  -0.744493277

     Diagonalizing the dynamical matrix

     q = (   -0.500000000  -0.500000000  -0.744493277 ) 

 **************************************************************************
     freq (    1) =       2.945580 [THz] =      98.253957 [cm-1]
     freq (    2) =       2.954461 [THz] =      98.550220 [cm-1]
     freq (    3) =       5.645957 [THz] =     188.328861 [cm-1]
     freq (    4) =       5.649415 [THz] =     188.444185 [cm-1]
     freq (    5) =       6.243841 [THz] =     208.272109 [cm-1]
     freq (    6) =       6.265848 [THz] =     209.006197 [cm-1]
     freq (    7) =       7.070402 [THz] =     235.843231 [cm-1]
     freq (    8) =       7.094784 [THz] =     236.656518 [cm-1]
     freq (    9) =       8.710370 [THz] =     290.546657 [cm-1]
     freq (   10) =       8.710592 [THz] =     290.554069 [cm-1]
     freq (   11) =      14.756177 [THz] =     492.213086 [cm-1]
     freq (   12) =      14.758217 [THz] =     492.281125 [cm-1]
     freq (   13) =      15.639115 [THz] =     521.664718 [cm-1]
     freq (   14) =      15.639735 [THz] =     521.685416 [cm-1]
     freq (   15) =      16.011816 [THz] =     534.096699 [cm-1]
     freq (   16) =      16.012557 [THz] =     534.121402 [cm-1]
     freq (   17) =      20.055820 [THz] =     668.990153 [cm-1]
     freq (   18) =      20.061599 [THz] =     669.182899 [cm-1]
 **************************************************************************

     Mode symmetry, C_2v (mm2)  point group:

     freq (  1 -  1) =         98.3  [cm-1]   --> B_1  D_3  S_3      
     freq (  2 -  2) =         98.6  [cm-1]   --> B_2  D_4  S_4      
     freq (  3 -  3) =        188.3  [cm-1]   --> A_1  D_1  S_1      
     freq (  4 -  4) =        188.4  [cm-1]   --> A_2  D_2  S_2      
     freq (  5 -  5) =        208.3  [cm-1]   --> A_2  D_2  S_2      
     freq (  6 -  6) =        209.0  [cm-1]   --> B_1  D_3  S_3      
     freq (  7 -  7) =        235.8  [cm-1]   --> B_2  D_4  S_4      
     freq (  8 -  8) =        236.7  [cm-1]   --> B_1  D_3  S_3      
     freq (  9 -  9) =        290.5  [cm-1]   --> A_1  D_1  S_1      
     freq ( 10 - 10) =        290.6  [cm-1]   --> B_2  D_4  S_4      
     freq ( 11 - 11) =        492.2  [cm-1]   --> B_2  D_4  S_4      
     freq ( 12 - 12) =        492.3  [cm-1]   --> A_1  D_1  S_1      
     freq ( 13 - 13) =        521.7  [cm-1]   --> A_1  D_1  S_1      
     freq ( 14 - 14) =        521.7  [cm-1]   --> A_2  D_2  S_2      
     freq ( 15 - 15) =        534.1  [cm-1]   --> B_1  D_3  S_3      
     freq ( 16 - 16) =        534.1  [cm-1]   --> B_2  D_4  S_4      
     freq ( 17 - 17) =        669.0  [cm-1]   --> A_1  D_1  S_1      
     freq ( 18 - 18) =        669.2  [cm-1]   --> B_2  D_4  S_4      
 
     init_run     :      1.21s CPU      1.62s WALL (       5 calls)
     electrons    :    107.29s CPU    108.65s WALL (       5 calls)

     Called by init_run:
     wfcinit      :      0.00s CPU      0.02s WALL (       5 calls)
     potinit      :      0.11s CPU      0.27s WALL (       5 calls)
     hinit0       :      0.53s CPU      0.54s WALL (       5 calls)

     Called by electrons:
     c_bands      :    107.29s CPU    108.64s WALL (       5 calls)
     v_of_rho     :      0.56s CPU      0.56s WALL (       6 calls)

     Called by c_bands:
     init_us_2    :     23.49s CPU     24.50s WALL (   27519 calls)
     cegterg      :     94.41s CPU     95.49s WALL (     246 calls)

     Called by sum_band:

     Called by *egterg:
     h_psi        :  14078.68s CPU  16304.16s WALL (  441232 calls)
     g_psi        :      0.97s CPU      0.95s WALL (    2978 calls)
     cdiaghg      :      7.08s CPU      7.14s WALL (    3224 calls)

     Called by h_psi:
     h_psi:pot    :  14049.28s CPU  16273.75s WALL (  441232 calls)
     h_psi:calbec :    821.56s CPU    963.88s WALL (  441232 calls)
     vloc_psi     :  12751.86s CPU  14827.09s WALL (  441232 calls)
     add_vuspsi   :    474.52s CPU    481.25s WALL (  441232 calls)

     General routines
     calbec       :   1701.88s CPU   2026.99s WALL (  890865 calls)
     fft          :     70.90s CPU     93.90s WALL (   18852 calls)
     ffts         :     12.04s CPU     15.86s WALL (    4914 calls)
     fftw         :  14664.16s CPU  17281.93s WALL (18114372 calls)
     davcio       :      2.48s CPU     80.09s WALL (  130508 calls)
 
     Parallel routines
     fft_scatt_xy :    797.29s CPU    808.83s WALL (18138138 calls)
     fft_scatt_yz :   7449.14s CPU   9943.17s WALL (18138138 calls)
 
     PHONON       :     5h13m CPU        6h10m WALL

     INITIALIZATION: 
     phq_setup    :      1.39s CPU      2.50s WALL (       6 calls)
     phq_init     :     32.73s CPU     48.04s WALL (       6 calls)
 
     phq_init     :     32.73s CPU     48.04s WALL (       6 calls)
     set_drhoc    :      3.40s CPU      4.62s WALL (      18 calls)
     init_vloc    :      0.21s CPU      0.21s WALL (       6 calls)
     init_us_1    :      0.07s CPU      0.08s WALL (       6 calls)
 
     DYNAMICAL MATRIX:
     dynmat0      :     24.96s CPU     36.07s WALL (       6 calls)
     phqscf       :  17333.79s CPU  20266.97s WALL (       6 calls)
     dynmatrix    :      0.12s CPU      0.52s WALL (       6 calls)
 
     phqscf       :  17333.79s CPU  20266.97s WALL (       6 calls)
     solve_linter :  17229.13s CPU  20117.42s WALL (     108 calls)
     drhodv       :    103.18s CPU    138.54s WALL (     108 calls)
 
     dynmat0      :     24.96s CPU     36.07s WALL (       6 calls)
     dynmat_us    :     22.06s CPU     32.29s WALL (       6 calls)
     d2ionq       :      0.15s CPU      0.20s WALL (       6 calls)
     dynmatcc     :      2.66s CPU      3.35s WALL (       6 calls)
 
     dynmat_us    :     22.06s CPU     32.29s WALL (       6 calls)
 
     phqscf       :  17333.79s CPU  20266.97s WALL (       6 calls)
     solve_linter :  17229.13s CPU  20117.42s WALL (     108 calls)
 
     solve_linter :  17229.13s CPU  20117.42s WALL (     108 calls)
     dvqpsi_us    :    197.49s CPU    260.74s WALL (    2970 calls)
     ortho        :     36.23s CPU     39.35s WALL (   24393 calls)
     cgsolve      :  15679.86s CPU  18141.96s WALL (   24393 calls)
     incdrhoscf   :   1017.83s CPU   1152.44s WALL (   24330 calls)
     vpsifft      :   1294.82s CPU   1624.17s WALL (   21234 calls)
     dv_of_drho   :     11.29s CPU     11.67s WALL (    1003 calls)
     mix_pot      :     37.56s CPU    160.50s WALL (     987 calls)
     psymdvscf    :     22.44s CPU     22.61s WALL (     979 calls)
 
     dvqpsi_us    :    197.49s CPU    260.74s WALL (    2970 calls)
     dvqpsi_us_on :     10.82s CPU     10.90s WALL (    2970 calls)
 
     cgsolve      :  15679.86s CPU  18141.96s WALL (   24393 calls)
     ch_psi       :  15327.02s CPU  17729.29s WALL (  437762 calls)
 
     ch_psi       :  15327.02s CPU  17729.29s WALL (  437762 calls)
     h_psi        :  14078.68s CPU  16304.16s WALL (  441232 calls)
     last         :   1282.42s CPU   1458.64s WALL (  437762 calls)
 
     h_psi        :  14078.68s CPU  16304.16s WALL (  441232 calls)
     add_vuspsi   :    474.52s CPU    481.25s WALL (  441232 calls)
 
     incdrhoscf   :   1017.83s CPU   1152.44s WALL (   24330 calls)
 
 
      General routines
     calbec       :   1701.88s CPU   2026.99s WALL (  890865 calls)
     fft          :     70.90s CPU     93.90s WALL (   18852 calls)
     ffts         :     12.04s CPU     15.86s WALL (    4914 calls)
     fftw         :  14664.16s CPU  17281.93s WALL (18114372 calls)
     davcio       :      2.48s CPU     80.09s WALL (  130508 calls)
     write_rec    :     19.85s CPU    105.02s WALL (    1095 calls)
 
 
     PHONON       :     5h13m CPU        6h10m WALL

 
   This run was terminated on:  20:44:43  22Apr2018            

=------------------------------------------------------------------------------=
   JOB DONE.
=------------------------------------------------------------------------------=
