
.Version 8.6.3 of ABINIT 
.(MPI version, prepared for a x86_64_linux_gnu4.9 computer) 

.Copyright (C) 1998-2017 ABINIT group . 
 ABINIT comes with ABSOLUTELY NO WARRANTY.
 It is free software, and you are welcome to redistribute it
 under certain conditions (GNU General Public License,
 see ~abinit/COPYING or http://www.gnu.org/copyleft/gpl.txt).

 ABINIT is a project of the Universite Catholique de Louvain,
 Corning Inc. and other collaborators, see ~abinit/doc/developers/contributors.txt .
 Please read ~abinit/doc/users/acknowledgments.html for suggested
 acknowledgments of the ABINIT effort.
 For more information, see https://www.abinit.org .

.Starting date : Sun  6 May 2018.
- ( at 16h57 )
  
- input  file    -> AI_relax.in
- output file    -> AI_relax.out
- root for input  files -> relax_xi
- root for output files -> relax_xo


 Symmetries : space group Am m 2 (# 38); Bravais oC (1-face-center ortho.)
================================================================================
 Values of the parameters that define the memory need of the present run
     intxc =       0    ionmov =       2      iscf =       7    lmnmax =       6
     lnmax =       6     mgfft =      54  mpssoang =       3    mqgrid =    3001
     natom =       6  nloc_mem =       1    nspden =       1   nspinor =       1
    nsppol =       1      nsym =       4    n1xccc =    2501    ntypat =       2
    occopt =       1   xclevel =       2
-    mband =          27        mffmem =           1         mkmem =          21
       mpw =        6456          nfft =      104976          nkpt =          21
================================================================================
P This job should need less than                      92.327 Mbytes of memory.
  Rough estimation (10% accuracy) of disk space for files :
_ WF disk file :     55.858 Mbytes ; DEN or POT disk file :      0.803 Mbytes.
================================================================================

--------------------------------------------------------------------------------
------------- Echo of variables that govern the present computation ------------
--------------------------------------------------------------------------------
-
- outvars: echo of selected default values                                      
-   iomode0 =  0 , fftalg0 =112 , wfoptalg0 =  0
-
- outvars: echo of global parameters not present in the input file              
-  max_nthreads =    0
-
 -outvars: echo values of preprocessed input variables --------
            acell      9.1100000000E+00  9.1100000000E+00  6.1037000000E+00 Bohr
              amu      1.18710000E+02  1.59994000E+01
           diemac      1.20000000E+01
          dilatmx      1.05000000E+00
             ecut      3.75000000E+01 Hartree
           ecutsm      5.00000000E-01 Hartree
-          fftalg         112
           ionmov           2
           istwfk        2    0    3    0    0    0    7    0    0    0
                         0    0    0    0    4    0    5    0    0    0
                         9
              ixc          11
              kpt      0.00000000E+00  0.00000000E+00  0.00000000E+00
                       2.50000000E-01  0.00000000E+00  0.00000000E+00
                       5.00000000E-01  0.00000000E+00  0.00000000E+00
                       2.50000000E-01  2.50000000E-01  0.00000000E+00
                       5.00000000E-01  2.50000000E-01  0.00000000E+00
                      -2.50000000E-01  2.50000000E-01  0.00000000E+00
                       5.00000000E-01  5.00000000E-01  0.00000000E+00
                       0.00000000E+00  0.00000000E+00  2.50000000E-01
                       2.50000000E-01  0.00000000E+00  2.50000000E-01
                       5.00000000E-01  0.00000000E+00  2.50000000E-01
                       2.50000000E-01  2.50000000E-01  2.50000000E-01
                       5.00000000E-01  2.50000000E-01  2.50000000E-01
                      -2.50000000E-01  2.50000000E-01  2.50000000E-01
                       5.00000000E-01  5.00000000E-01  2.50000000E-01
                       0.00000000E+00  0.00000000E+00  5.00000000E-01
                       2.50000000E-01  0.00000000E+00  5.00000000E-01
                       5.00000000E-01  0.00000000E+00  5.00000000E-01
                       2.50000000E-01  2.50000000E-01  5.00000000E-01
                       5.00000000E-01  2.50000000E-01  5.00000000E-01
                      -2.50000000E-01  2.50000000E-01  5.00000000E-01
                       5.00000000E-01  5.00000000E-01  5.00000000E-01
         kptrlatt        4    0    0      0    4    0      0    0    4
          kptrlen      2.44148000E+01
P           mkmem          21
            natom           6
            nband          27
            ngfft          54      54      36
             nkpt          21
            nstep         100
             nsym           4
            ntime         100
           ntypat           2
              occ      2.000000  2.000000  2.000000  2.000000  2.000000  2.000000
                       2.000000  2.000000  2.000000  2.000000  2.000000  2.000000
                       2.000000  2.000000  2.000000  2.000000  2.000000  2.000000
                       2.000000  2.000000  2.000000  2.000000  2.000000  2.000000
                       2.000000  2.000000  0.000000
          optcell           2
          spgroup          38
           symrel      1  0  0   0  1  0   0  0  1       1  0  0   0  1  0   0  0 -1
                       0  1  0   1  0  0   0  0  1       0  1  0   1  0  0   0  0 -1
           toldfe      5.00000000E-13 Hartree
           tolmxf      5.00000000E-10
            typat      1  1  2  2  2  2
              wtk        0.01563    0.06250    0.03125    0.03125    0.06250    0.03125
                         0.01563    0.03125    0.12500    0.06250    0.06250    0.12500
                         0.06250    0.03125    0.01563    0.06250    0.03125    0.03125
                         0.06250    0.03125    0.01563
           xangst      0.0000000000E+00  0.0000000000E+00  0.0000000000E+00
                       2.4104021851E+00  2.4104021851E+00  1.6149694640E+00
                       3.8855683224E+00  9.3041524346E-01  1.6149694640E+00
                       9.3041524346E-01  3.8855683224E+00  1.6149694640E+00
                       1.4751661373E+00  1.4751661373E+00  0.0000000000E+00
                       3.3408174286E+00  3.3408174286E+00  0.0000000000E+00
            xcart      0.0000000000E+00  0.0000000000E+00  0.0000000000E+00
                       4.5550000000E+00  4.5550000000E+00  3.0518500000E+00
                       7.3426600000E+00  1.7582300000E+00  3.0518500000E+00
                       1.7582300000E+00  7.3426600000E+00  3.0518500000E+00
                       2.7876600000E+00  2.7876600000E+00  0.0000000000E+00
                       6.3132300000E+00  6.3132300000E+00  0.0000000000E+00
             xred      0.0000000000E+00  0.0000000000E+00  0.0000000000E+00
                       5.0000000000E-01  5.0000000000E-01  5.0000000000E-01
                       8.0600000000E-01  1.9300000000E-01  5.0000000000E-01
                       1.9300000000E-01  8.0600000000E-01  5.0000000000E-01
                       3.0600000000E-01  3.0600000000E-01  0.0000000000E+00
                       6.9300000000E-01  6.9300000000E-01  0.0000000000E+00
            znucl       50.00000    8.00000

================================================================================

 chkinp: Checking input parameters for consistency.

================================================================================
== DATASET  1 ==================================================================
-   nproc =    1

 Exchange-correlation functional for the present dataset will be:
  GGA: Perdew-Burke-Ernzerhof functional - ixc=11
 Citation for XC functional:
  J.P.Perdew, K.Burke, M.Ernzerhof, PRL 77, 3865 (1996)

 Real(R)+Recip(G) space primitive vectors, cartesian coordinates (Bohr,Bohr^-1):
 R(1)=  9.1100000  0.0000000  0.0000000  G(1)=  0.1097695  0.0000000  0.0000000
 R(2)=  0.0000000  9.1100000  0.0000000  G(2)=  0.0000000  0.1097695  0.0000000
 R(3)=  0.0000000  0.0000000  6.1037000  G(3)=  0.0000000  0.0000000  0.1638351
 Unit cell volume ucvol=  5.0655888E+02 bohr^3
 Angles (23,13,12)=  9.00000000E+01  9.00000000E+01  9.00000000E+01 degrees

 getcut: wavevector=  0.0000  0.0000  0.0000  ngfft=  54  54  36
         ecut(hartree)=     41.344   => boxcut(ratio)=   2.03770

--- Pseudopotential description ------------------------------------------------
- pspini: atom type   1  psp file is ../Pseudo_potentials/Sn_PBE.psp8
- pspatm: opening atomic psp file    ../Pseudo_potentials/Sn_PBE.psp8
- Sn    ONCVPSP-3.2.3.1  r_core=   2.27326   2.62311   1.85601
- 50.00000  14.00000    170510                znucl, zion, pspdat
    8   11    2    4       600   0.00000      pspcod,pspxc,lmax,lloc,mmax,r2well
    5.99000000000000    6.50000000000000    0.00000000000000   rchrg,fchrg,qchrg
     nproj     2     2     2
     extension_switch     1
  pspatm : epsatm=   32.65096653
         --- l  ekb(1:nproj) -->
             0    5.582184    0.748969
             1    4.193379    0.727317
             2   -5.282748   -1.526429
 pspatm: atomic psp has been read  and splines computed

- pspini: atom type   2  psp file is ../Pseudo_potentials/O_PBE.psp8
- pspatm: opening atomic psp file    ../Pseudo_potentials/O_PBE.psp8
- O     ONCVPSP-3.2.3.1  r_core=   1.35509   1.45563   1.26150
-  8.00000   6.00000    170504                znucl, zion, pspdat
    8   11    2    4       600   0.00000      pspcod,pspxc,lmax,lloc,mmax,r2well
    5.99000000000000    4.00000000000000    0.00000000000000   rchrg,fchrg,qchrg
     nproj     2     2     1
     extension_switch     1
  pspatm : epsatm=    6.19546011
         --- l  ekb(1:nproj) -->
             0    6.056735    0.824024
             1   -4.717130   -1.149271
             2   -1.331955
 pspatm: atomic psp has been read  and splines computed

   4.68435622E+03                                ecore*ucvol(ha*bohr**3)
--------------------------------------------------------------------------------

_setup2: Arith. and geom. avg. npw (full set) are    6436.547    6436.532

================================================================================

=== [ionmov= 2] Broyden-Fletcher-Goldfard-Shanno method (forces)            
================================================================================

--- Iteration: (  1/100) Internal Cycle: (1/1)
--------------------------------------------------------------------------------

---SELF-CONSISTENT-FIELD CONVERGENCE--------------------------------------------

     iter   Etot(hartree)      deltaE(h)  residm     vres2
 ETOT  1  -222.52992647497    -2.225E+02 3.029E-01 7.205E+02
 ETOT  2  -223.62699745180    -1.097E+00 7.887E-02 4.954E+02
 ETOT  3  -223.77838175914    -1.514E-01 8.325E-03 5.699E+01
 ETOT  4  -223.79219209084    -1.381E-02 8.907E-03 4.375E+00
 ETOT  5  -223.79177526342     4.168E-04 1.109E-03 5.596E+00
 ETOT  6  -223.79326103634    -1.486E-03 6.713E-04 8.151E-02
 ETOT  7  -223.79327386409    -1.283E-05 4.737E-04 5.853E-03
 ETOT  8  -223.79327456490    -7.008E-07 3.438E-04 1.941E-03
 ETOT  9  -223.79327486241    -2.975E-07 2.367E-04 3.418E-04
 ETOT 10  -223.79327492761    -6.521E-08 1.693E-04 8.436E-06
 ETOT 11  -223.79327492906    -1.442E-09 1.145E-04 1.459E-06
 ETOT 12  -223.79327492929    -2.341E-10 7.961E-05 1.011E-07
 ETOT 13  -223.79327492931    -2.200E-11 5.381E-05 4.801E-09
 ETOT 14  -223.79327492931    -9.095E-13 3.653E-05 2.899E-10
 ETOT 15  -223.79327492931     2.842E-14 2.493E-05 8.791E-12
 ETOT 16  -223.79327492931     3.126E-13 1.660E-05 2.291E-12

 At SCF step   16, etot is converged : 
  for the second time, diff in etot=  3.126E-13 < toldfe=  5.000E-13

 Cartesian components of stress tensor (hartree/bohr^3)
  sigma(1 1)= -5.79891468E-05  sigma(3 2)=  0.00000000E+00
  sigma(2 2)= -5.79891468E-05  sigma(3 1)=  0.00000000E+00
  sigma(3 3)= -1.00042308E-04  sigma(2 1)= -5.54091846E-08

 Integrated electronic density in atomic spheres:
 ------------------------------------------------
 Atom  Sphere_radius  Integrated_density
    1        2.00000         10.45050529
    2        2.00000         10.45050196
    3        2.00000          6.26675580
    4        2.00000          6.26675580
    5        2.00000          6.26326894
    6        2.00000          6.26351091

---OUTPUT-----------------------------------------------------------------------

 Cartesian coordinates (xcart) [bohr]
  0.00000000000000E+00  0.00000000000000E+00  0.00000000000000E+00
  4.55500000000000E+00  4.55500000000000E+00  3.05185000000000E+00
  7.34266000000000E+00  1.75823000000000E+00  3.05185000000000E+00
  1.75823000000000E+00  7.34266000000000E+00  3.05185000000000E+00
  2.78766000000000E+00  2.78766000000000E+00  0.00000000000000E+00
  6.31323000000000E+00  6.31323000000000E+00  0.00000000000000E+00
 Reduced coordinates (xred)
  0.00000000000000E+00  0.00000000000000E+00  0.00000000000000E+00
  5.00000000000000E-01  5.00000000000000E-01  5.00000000000000E-01
  8.06000000000000E-01  1.93000000000000E-01  5.00000000000000E-01
  1.93000000000000E-01  8.06000000000000E-01  5.00000000000000E-01
  3.06000000000000E-01  3.06000000000000E-01  0.00000000000000E+00
  6.93000000000000E-01  6.93000000000000E-01  0.00000000000000E+00
 Cartesian forces (fcart) [Ha/bohr]; max,rms= 8.33627E-04 4.32690E-04 (free atoms)
 -5.29448636840315E-04 -5.29448636840315E-04 -0.00000000000000E+00
 -6.76097704341658E-04 -6.76097704341658E-04 -0.00000000000000E+00
 -2.33436094379035E-04  2.16333197121186E-04 -0.00000000000000E+00
  2.16333197121186E-04 -2.33436094379035E-04 -0.00000000000000E+00
  3.89022189757926E-04  3.89022189757926E-04 -0.00000000000000E+00
  8.33627048681896E-04  8.33627048681896E-04 -0.00000000000000E+00
 Reduced forces (fred)
  4.82327708161527E-03  4.82327708161527E-03  0.00000000000000E+00
  6.15925008655251E-03  6.15925008655251E-03  0.00000000000000E+00
  2.12660281979301E-03 -1.97079542577400E-03 -0.00000000000000E+00
 -1.97079542577400E-03  2.12660281979301E-03 -0.00000000000000E+00
 -3.54399214869471E-03 -3.54399214869471E-03 -0.00000000000000E+00
 -7.59434241349207E-03 -7.59434241349207E-03 -0.00000000000000E+00
 Scale of Primitive Cell (acell) [bohr]
  9.11000000000000E+00  9.11000000000000E+00  6.10370000000000E+00
 Real space primitive translations (rprimd) [bohr]
  9.11000000000000E+00  0.00000000000000E+00  0.00000000000000E+00
  0.00000000000000E+00  9.11000000000000E+00  0.00000000000000E+00
  0.00000000000000E+00  0.00000000000000E+00  6.10370000000000E+00
 Unitary Cell Volume (ucvol) [Bohr^3]=  5.06558880770000E+02
 Angles (23,13,12)= [degrees]
  9.00000000000000E+01  9.00000000000000E+01  9.00000000000000E+01
 Lengths [Bohr]
  9.11000000000000E+00  9.11000000000000E+00  6.10370000000000E+00
 Stress tensor in cartesian coordinates (strten) [Ha/bohr^3]
 -5.79891468028941E-05 -5.54091845547864E-08  0.00000000000000E+00
 -5.54091845547864E-08 -5.79891468028941E-05  0.00000000000000E+00
  0.00000000000000E+00  0.00000000000000E+00 -1.00042308307197E-04
 Total energy (etotal) [Ha]= -2.23793274929312E+02

--- Iteration: (  2/100) Internal Cycle: (1/1)
--------------------------------------------------------------------------------

---SELF-CONSISTENT-FIELD CONVERGENCE--------------------------------------------

     iter   Etot(hartree)      deltaE(h)  residm     vres2
 ETOT  1  -223.79230377558    -2.238E+02 1.827E-05 7.565E+00
 ETOT  2  -223.79259796260    -2.942E-04 9.916E-06 2.479E+00
 ETOT  3  -223.79325595117    -6.580E-04 1.757E-05 6.139E-01
 ETOT  4  -223.79345389713    -1.979E-04 3.029E-06 1.594E-02
 ETOT  5  -223.79345566343    -1.766E-06 2.385E-06 7.994E-04
 ETOT  6  -223.79345563514     2.829E-08 6.456E-07 8.579E-04
 ETOT  7  -223.79345581023    -1.751E-07 6.940E-07 7.282E-06
 ETOT  8  -223.79345581198    -1.750E-09 2.372E-07 4.785E-07
 ETOT  9  -223.79345581204    -5.758E-11 2.614E-07 3.211E-07
 ETOT 10  -223.79345581208    -4.403E-11 9.320E-08 7.485E-08
 ETOT 11  -223.79345581210    -1.563E-11 1.083E-07 5.130E-10
 ETOT 12  -223.79345581210    -4.036E-12 3.956E-08 4.548E-11
 ETOT 13  -223.79345581210     2.814E-12 4.635E-08 7.394E-12
 ETOT 14  -223.79345581210     1.393E-12 1.729E-08 4.852E-13
 ETOT 15  -223.79345581210    -1.450E-12 2.018E-08 5.336E-14
 ETOT 16  -223.79345581210     2.530E-12 7.626E-09 1.639E-15
 ETOT 17  -223.79345581210    -1.791E-12 8.877E-09 2.171E-16
 ETOT 18  -223.79345581210     5.684E-14 3.384E-09 1.812E-17
 ETOT 19  -223.79345581210    -1.080E-12 3.942E-09 2.074E-19
 ETOT 20  -223.79345581210    -1.251E-12 1.510E-09 1.104E-20
 ETOT 21  -223.79345581210     1.137E-13 1.764E-09 2.136E-21
 ETOT 22  -223.79345581210    -8.527E-14 8.076E-10 4.720E-22

 At SCF step   22, etot is converged : 
  for the second time, diff in etot=  8.527E-14 < toldfe=  5.000E-13

 Cartesian components of stress tensor (hartree/bohr^3)
  sigma(1 1)= -2.27190502E-05  sigma(3 2)=  0.00000000E+00
  sigma(2 2)= -2.27190502E-05  sigma(3 1)=  0.00000000E+00
  sigma(3 3)= -4.18638626E-05  sigma(2 1)=  8.68957749E-09

 Integrated electronic density in atomic spheres:
 ------------------------------------------------
 Atom  Sphere_radius  Integrated_density
    1        2.00000         10.44948226
    2        2.00000         10.44889824
    3        2.00000          6.25502300
    4        2.00000          6.25502300
    5        2.00000          6.25795095
    6        2.00000          6.25713863

---OUTPUT-----------------------------------------------------------------------

 Cartesian coordinates (xcart) [bohr]
 -5.30371465261139E-04 -5.30371465261139E-04  0.00000000000000E+00
  4.56226208409882E+00  4.56226208409882E+00  3.06100942355822E+00
  7.35520584150738E+00  1.76152986754606E+00  3.06100942355822E+00
  1.76152986754606E+00  7.35520584150738E+00  3.06100942355822E+00
  2.79290858872237E+00  2.79290858872237E+00  0.00000000000000E+00
  6.32506903335344E+00  6.32506903335344E+00  0.00000000000000E+00
 Reduced coordinates (xred)
 -5.81173037146339E-05 -5.81173037146339E-05  0.00000000000000E+00
  4.99925785103804E-01  4.99925785103804E-01  5.00000000000000E-01
  8.05974375840354E-01  1.93023746783438E-01  5.00000000000000E-01
  1.93023746783438E-01  8.05974375840354E-01  5.00000000000000E-01
  3.06042702765067E-01  3.06042702765067E-01  0.00000000000000E+00
  6.93091506811052E-01  6.93091506811052E-01  0.00000000000000E+00
 Cartesian forces (fcart) [Ha/bohr]; max,rms= 5.96608E-04 3.06332E-04 (free atoms)
 -4.09166883398137E-04 -4.09166883398137E-04 -0.00000000000000E+00
 -4.48305675165410E-04 -4.48305675165410E-04 -0.00000000000000E+00
  2.01238065235168E-04 -1.67596396593705E-04 -0.00000000000000E+00
 -1.67596396593705E-04  2.01238065235168E-04 -0.00000000000000E+00
  5.96608063181449E-04  5.96608063181449E-04 -0.00000000000000E+00
  2.27222826740635E-04  2.27222826740635E-04 -0.00000000000000E+00
 Reduced forces (fred)
  3.73400735432880E-03  3.73400735432880E-03  0.00000000000000E+00
  4.09118322126311E-03  4.09118322126311E-03  0.00000000000000E+00
 -1.83646300651645E-03  1.52945321853983E-03 -0.00000000000000E+00
  1.52945321853983E-03 -1.83646300651645E-03 -0.00000000000000E+00
 -5.44457282825527E-03 -5.44457282825527E-03 -0.00000000000000E+00
 -2.07360795936002E-03 -2.07360795936002E-03 -0.00000000000000E+00
 Scale of Primitive Cell (acell) [bohr]
  9.12584843387149E+00  9.12584843387149E+00  6.12201884711644E+00
 Real space primitive translations (rprimd) [bohr]
  9.12584843382123E+00  3.02866602776463E-05  0.00000000000000E+00
  3.02866602776463E-05  9.12584843382123E+00  0.00000000000000E+00
  0.00000000000000E+00  0.00000000000000E+00  6.12201884711644E+00
 Unitary Cell Volume (ucvol) [Bohr^3]=  5.09848522801342E+02
 Angles (23,13,12)= [degrees]
  9.00000000000000E+01  9.00000000000000E+01  8.99996196961144E+01
 Lengths [Bohr]
  9.12584843387149E+00  9.12584843387149E+00  6.12201884711644E+00
 Stress tensor in cartesian coordinates (strten) [Ha/bohr^3]
 -2.27190502062116E-05  8.68957748993687E-09  0.00000000000000E+00
  8.68957748993687E-09 -2.27190502062116E-05  0.00000000000000E+00
  0.00000000000000E+00  0.00000000000000E+00 -4.18638626493856E-05
 Total energy (etotal) [Ha]= -2.23793455812099E+02

 Difference of energy with previous step (new-old):
           Absolute (Ha)=-1.80883E-04
           Relative     =-8.08258E-07

--- Iteration: (  3/100) Internal Cycle: (1/1)
--------------------------------------------------------------------------------

---SELF-CONSISTENT-FIELD CONVERGENCE--------------------------------------------

     iter   Etot(hartree)      deltaE(h)  residm     vres2
 ETOT  1  -223.79295029961    -2.238E+02 7.142E-07 3.528E+00
 ETOT  2  -223.79308250990    -1.322E-04 2.407E-07 1.198E+00
 ETOT  3  -223.79340247821    -3.200E-04 8.307E-06 2.887E-01
 ETOT  4  -223.79349547269    -9.299E-05 6.843E-07 7.565E-03
 ETOT  5  -223.79349632531    -8.526E-07 2.742E-08 3.360E-04
 ETOT  6  -223.79349631411     1.120E-08 6.002E-09 3.416E-04
 ETOT  7  -223.79349638580    -7.169E-08 2.041E-09 5.149E-06
 ETOT  8  -223.79349638696    -1.163E-09 1.400E-09 4.774E-07
 ETOT  9  -223.79349638703    -6.693E-11 7.954E-10 2.538E-07
 ETOT 10  -223.79349638707    -4.772E-11 9.578E-10 3.560E-08
 ETOT 11  -223.79349638708    -2.018E-12 6.823E-10 1.565E-10
 ETOT 12  -223.79349638708    -3.382E-12 8.357E-10 6.482E-11
 ETOT 13  -223.79349638708    -5.400E-13 6.141E-10 8.205E-12
 ETOT 14  -223.79349638708     1.108E-12 8.088E-10 1.232E-13
 ETOT 15  -223.79349638708     2.842E-14 5.784E-10 5.334E-14
 ETOT 16  -223.79349638708    -7.105E-13 7.942E-10 2.008E-15
 ETOT 17  -223.79349638708     2.387E-12 5.609E-10 4.651E-16
 ETOT 18  -223.79349638707     1.535E-12 7.831E-10 4.031E-17
 ETOT 19  -223.79349638708    -7.958E-13 5.512E-10 1.206E-17
 ETOT 20  -223.79349638708     2.558E-13 7.743E-10 1.353E-18
 ETOT 21  -223.79349638708    -1.904E-12 5.447E-10 1.487E-20
 ETOT 22  -223.79349638708     1.620E-12 7.670E-10 1.041E-21
 ETOT 23  -223.79349638708    -4.832E-13 5.395E-10 7.121E-22
 ETOT 24  -223.79349638708     1.990E-13 7.607E-10 4.229E-22

 At SCF step   24, etot is converged : 
  for the second time, diff in etot=  1.990E-13 < toldfe=  5.000E-13

 Cartesian components of stress tensor (hartree/bohr^3)
  sigma(1 1)=  6.64869940E-07  sigma(3 2)=  0.00000000E+00
  sigma(2 2)=  6.64869940E-07  sigma(3 1)=  0.00000000E+00
  sigma(3 3)= -3.12556102E-06  sigma(2 1)=  1.85263004E-08

 Integrated electronic density in atomic spheres:
 ------------------------------------------------
 Atom  Sphere_radius  Integrated_density
    1        2.00000         10.44469981
    2        2.00000         10.44468951
    3        2.00000          6.25062300
    4        2.00000          6.25062300
    5        2.00000          6.25217035
    6        2.00000          6.24793856

---OUTPUT-----------------------------------------------------------------------

 Cartesian coordinates (xcart) [bohr]
 -1.23507454728388E-03 -1.23507454728388E-03  0.00000000000000E+00
  4.56687588534518E+00  4.56687588534518E+00  3.06765873515226E+00
  7.36423549818295E+00  1.76332068085378E+00  3.06765873515226E+00
  1.76332068085378E+00  7.36423549818295E+00  3.06765873515226E+00
  2.79722865006186E+00  2.79722865006186E+00  0.00000000000000E+00
  6.33293281979286E+00  6.33293281979286E+00  0.00000000000000E+00
 Reduced coordinates (xred)
 -1.35178011797178E-04 -1.35178011797178E-04  0.00000000000000E+00
  4.99841247366867E-01  4.99841247366867E-01  5.00000000000000E-01
  8.06011731698681E-01  1.92992660030269E-01  5.00000000000000E-01
  1.92992660030269E-01  8.06011731698681E-01  5.00000000000000E-01
  3.06154643287744E-01  3.06154643287744E-01  0.00000000000000E+00
  6.93134895628235E-01  6.93134895628235E-01  0.00000000000000E+00
 Cartesian forces (fcart) [Ha/bohr]; max,rms= 5.59290E-04 2.83858E-04 (free atoms)
 -2.60609150606595E-04 -2.60609150606595E-04 -0.00000000000000E+00
 -2.12273873132616E-04 -2.12273873132616E-04 -0.00000000000000E+00
  4.07207766593417E-04 -3.23461788177379E-04 -0.00000000000000E+00
 -3.23461788177379E-04  4.07207766593417E-04 -0.00000000000000E+00
  5.59289975516340E-04  5.59289975516340E-04 -0.00000000000000E+00
 -1.70152930193167E-04 -1.70152930193167E-04 -0.00000000000000E+00
 Reduced forces (fred)
  2.38109530110868E-03  2.38109530110868E-03  0.00000000000000E+00
  1.93947265737883E-03  1.93947265737883E-03  0.00000000000000E+00
 -3.72049952823131E-03  2.95534160791640E-03 -0.00000000000000E+00
  2.95534160791640E-03 -3.72049952823131E-03 -0.00000000000000E+00
 -5.11003826826274E-03 -5.11003826826274E-03 -0.00000000000000E+00
  1.55462823009013E-03  1.55462823009013E-03  0.00000000000000E+00
 Scale of Primitive Cell (acell) [bohr]
  9.13663024128221E+00  9.13663024128221E+00  6.13531747030453E+00
 Real space primitive translations (rprimd) [bohr]
  9.13663024125459E+00  2.24647859899760E-05  0.00000000000000E+00
  2.24647859899760E-05  9.13663024125459E+00  0.00000000000000E+00
  0.00000000000000E+00  0.00000000000000E+00  6.13531747030453E+00
 Unitary Cell Volume (ucvol) [Bohr^3]=  5.12164106421624E+02
 Angles (23,13,12)= [degrees]
  9.00000000000000E+01  9.00000000000000E+01  8.99997182467954E+01
 Lengths [Bohr]
  9.13663024128221E+00  9.13663024128221E+00  6.13531747030453E+00
 Stress tensor in cartesian coordinates (strten) [Ha/bohr^3]
  6.64869939662888E-07  1.85263004083064E-08  0.00000000000000E+00
  1.85263004083064E-08  6.64869939662888E-07  0.00000000000000E+00
  0.00000000000000E+00  0.00000000000000E+00 -3.12556102305059E-06
 Total energy (etotal) [Ha]= -2.23793496387076E+02

 Difference of energy with previous step (new-old):
           Absolute (Ha)=-4.05750E-05
           Relative     =-1.81305E-07

--- Iteration: (  4/100) Internal Cycle: (1/1)
--------------------------------------------------------------------------------

---SELF-CONSISTENT-FIELD CONVERGENCE--------------------------------------------

     iter   Etot(hartree)      deltaE(h)  residm     vres2
 ETOT  1  -223.79349410329    -2.238E+02 5.074E-08 1.882E-02
 ETOT  2  -223.79349688036    -2.777E-06 4.486E-09 3.478E-03
 ETOT  3  -223.79349755904    -6.787E-07 2.996E-08 1.259E-03
 ETOT  4  -223.79349798988    -4.308E-07 4.811E-09 5.762E-05
 ETOT  5  -223.79349799924    -9.361E-09 2.026E-09 3.320E-06
 ETOT  6  -223.79349799947    -2.259E-10 1.344E-09 1.878E-06
 ETOT  7  -223.79349799980    -3.346E-10 1.557E-09 1.757E-07
 ETOT  8  -223.79349799985    -4.417E-11 1.148E-09 1.741E-09
 ETOT  9  -223.79349799985     5.684E-13 1.398E-09 1.167E-09
 ETOT 10  -223.79349799985    -4.547E-13 1.079E-09 1.637E-10
 ETOT 11  -223.79349799984     3.695E-12 1.325E-09 2.226E-12
 ETOT 12  -223.79349799985    -5.684E-12 1.047E-09 7.050E-14
 ETOT 13  -223.79349799984     3.809E-12 1.289E-09 6.115E-14
 ETOT 14  -223.79349799985    -1.535E-12 1.026E-09 9.512E-15
 ETOT 15  -223.79349799984     2.899E-12 1.267E-09 1.835E-16
 ETOT 16  -223.79349799984    -2.842E-13 1.011E-09 9.944E-18
 ETOT 17  -223.79349799984     6.821E-13 1.253E-09 1.102E-18
 ETOT 18  -223.79349799984    -2.842E-13 9.986E-10 1.358E-19
 ETOT 19  -223.79349799984    -9.948E-13 1.242E-09 8.227E-21
 ETOT 20  -223.79349799984     2.558E-13 9.884E-10 7.005E-22
 ETOT 21  -223.79349799984    -3.411E-13 1.234E-09 3.855E-22

 At SCF step   21, etot is converged : 
  for the second time, diff in etot=  3.411E-13 < toldfe=  5.000E-13

 Cartesian components of stress tensor (hartree/bohr^3)
  sigma(1 1)=  1.84370301E-06  sigma(3 2)=  0.00000000E+00
  sigma(2 2)=  1.84370301E-06  sigma(3 1)=  0.00000000E+00
  sigma(3 3)= -5.54274205E-07  sigma(2 1)=  9.04507319E-09

 Integrated electronic density in atomic spheres:
 ------------------------------------------------
 Atom  Sphere_radius  Integrated_density
    1        2.00000         10.44383791
    2        2.00000         10.44401453
    3        2.00000          6.25034969
    4        2.00000          6.25034969
    5        2.00000          6.25124941
    6        2.00000          6.24735751

---OUTPUT-----------------------------------------------------------------------

 Cartesian coordinates (xcart) [bohr]
 -1.54589110023642E-03 -1.54589110023642E-03  0.00000000000000E+00
  4.56677878423488E+00  4.56677878423488E+00  3.06829443730185E+00
  7.36495734336529E+00  1.76302169121058E+00  3.06829443730185E+00
  1.76302169121058E+00  7.36495734336529E+00  3.06829443730185E+00
  2.79797236644252E+00  2.79797236644252E+00  0.00000000000000E+00
  6.33300163684312E+00  6.33300163684312E+00  0.00000000000000E+00
 Reduced coordinates (xred)
 -1.69190523599193E-04 -1.69190523599193E-04  0.00000000000000E+00
  4.99812498789999E-01  4.99812498789999E-01  5.00000000000000E-01
  8.06060776998282E-01  1.92953676235947E-01  5.00000000000000E-01
  1.92953676235947E-01  8.06060776998282E-01  5.00000000000000E-01
  3.06224940179865E-01  3.06224940179865E-01  0.00000000000000E+00
  6.93117298319505E-01  6.93117298319505E-01  0.00000000000000E+00
 Cartesian forces (fcart) [Ha/bohr]; max,rms= 4.21238E-04 2.24502E-04 (free atoms)
 -1.97198370885254E-04 -1.97198370885254E-04 -0.00000000000000E+00
 -1.41744726897110E-04 -1.41744726897110E-04 -0.00000000000000E+00
  3.48716261856835E-04 -2.52260485321157E-04 -0.00000000000000E+00
 -2.52260485321157E-04  3.48716261856835E-04 -0.00000000000000E+00
  4.21237893685243E-04  4.21237893685242E-04 -0.00000000000000E+00
 -1.78750572438556E-04 -1.78750572438556E-04 -0.00000000000000E+00
 Reduced forces (fred)
  1.80179835163114E-03  1.80179835163114E-03  0.00000000000000E+00
  1.29511929601197E-03  1.29511929601197E-03  0.00000000000000E+00
 -3.18620798393775E-03  2.30489310092377E-03 -0.00000000000000E+00
  2.30489310092377E-03 -3.18620798393775E-03 -0.00000000000000E+00
 -3.84884387776348E-03 -3.84884387776348E-03 -0.00000000000000E+00
  1.63324111313435E-03  1.63324111313435E-03  0.00000000000000E+00
 Scale of Primitive Cell (acell) [bohr]
  9.13697246646975E+00  9.13697246646975E+00  6.13658887460370E+00
 Real space primitive translations (rprimd) [bohr]
  9.13697246646253E+00  1.14931035909201E-05  0.00000000000000E+00
  1.14931035909201E-05  9.13697246646253E+00  0.00000000000000E+00
  0.00000000000000E+00  0.00000000000000E+00  6.13658887460370E+00
 Unitary Cell Volume (ucvol) [Bohr^3]=  5.12308617036518E+02
 Angles (23,13,12)= [degrees]
  9.00000000000000E+01  9.00000000000000E+01  8.99998558589661E+01
 Lengths [Bohr]
  9.13697246646975E+00  9.13697246646975E+00  6.13658887460370E+00
 Stress tensor in cartesian coordinates (strten) [Ha/bohr^3]
  1.84370300666120E-06  9.04507318686844E-09  0.00000000000000E+00
  9.04507318686844E-09  1.84370300666120E-06  0.00000000000000E+00
  0.00000000000000E+00  0.00000000000000E+00 -5.54274205078614E-07
 Total energy (etotal) [Ha]= -2.23793497999844E+02

 Difference of energy with previous step (new-old):
           Absolute (Ha)=-1.61277E-06
           Relative     =-7.20650E-09

--- Iteration: (  5/100) Internal Cycle: (1/1)
--------------------------------------------------------------------------------

---SELF-CONSISTENT-FIELD CONVERGENCE--------------------------------------------

     iter   Etot(hartree)      deltaE(h)  residm     vres2
 ETOT  1  -223.79347754078    -2.238E+02 2.079E-07 1.018E-01
 ETOT  2  -223.79349823645    -2.070E-05 2.239E-08 5.932E-03
 ETOT  3  -223.79349992827    -1.692E-06 1.448E-07 1.155E-03
 ETOT  4  -223.79350018080    -2.525E-07 1.290E-08 1.998E-04
 ETOT  5  -223.79350021983    -3.904E-08 5.654E-09 4.281E-06
 ETOT  6  -223.79350022085    -1.014E-09 4.150E-09 8.632E-07
 ETOT  7  -223.79350022103    -1.816E-10 4.103E-09 8.473E-08
 ETOT  8  -223.79350022106    -3.112E-11 3.439E-09 1.529E-09
 ETOT  9  -223.79350022106     7.674E-13 3.635E-09 2.195E-09
 ETOT 10  -223.79350022106     2.473E-12 3.259E-09 2.722E-11
 ETOT 11  -223.79350022106    -3.411E-13 3.468E-09 1.232E-12
 ETOT 12  -223.79350022106    -1.705E-13 3.200E-09 1.889E-13

 At SCF step   12, etot is converged : 
  for the second time, diff in etot=  1.705E-13 < toldfe=  5.000E-13

 Cartesian components of stress tensor (hartree/bohr^3)
  sigma(1 1)=  1.72829787E-06  sigma(3 2)=  0.00000000E+00
  sigma(2 2)=  1.72829787E-06  sigma(3 1)=  0.00000000E+00
  sigma(3 3)=  1.38037892E-06  sigma(2 1)= -1.40897076E-08

 Integrated electronic density in atomic spheres:
 ------------------------------------------------
 Atom  Sphere_radius  Integrated_density
    1        2.00000         10.44443623
    2        2.00000         10.44395126
    3        2.00000          6.25146286
    4        2.00000          6.25146286
    5        2.00000          6.25051894
    6        2.00000          6.24898937

---OUTPUT-----------------------------------------------------------------------

 Cartesian coordinates (xcart) [bohr]
 -2.37634534087398E-03 -2.37634534087398E-03  0.00000000000000E+00
  4.56578392496084E+00  4.56578392496084E+00  3.06923017204072E+00
  7.36574664982253E+00  1.76186836173306E+00  3.06923017204072E+00
  1.76186836173306E+00  7.36574664982253E+00  3.06923017204072E+00
  2.79948743588881E+00  2.79948743588881E+00  0.00000000000000E+00
  6.33189019721590E+00  6.33189019721590E+00  0.00000000000000E+00
 Reduced coordinates (xred)
 -2.60100191179186E-04 -2.60100191179187E-04  0.00000000000000E+00
  4.99742714721929E-01  4.99742714721929E-01  5.00000000000000E-01
  8.06208744291832E-01  1.92844031700090E-01  5.00000000000000E-01
  1.92844031700090E-01  8.06208744291832E-01  5.00000000000000E-01
  3.06414730533487E-01  3.06414730533487E-01  0.00000000000000E+00
  6.93049878943841E-01  6.93049878943841E-01  0.00000000000000E+00
 Cartesian forces (fcart) [Ha/bohr]; max,rms= 1.35653E-04 6.41470E-05 (free atoms)
 -3.10375920226199E-05 -3.10375920226199E-05 -0.00000000000000E+00
  1.72340727142524E-05  1.72340727142524E-05 -0.00000000000000E+00
  1.35653156320517E-04 -1.55843656506070E-05 -0.00000000000000E+00
 -1.55843656506070E-05  1.35653156320517E-04 -0.00000000000000E+00
  2.26378534562218E-05  2.26378534562218E-05 -0.00000000000000E+00
 -1.28903124817764E-04 -1.28903124817764E-04 -0.00000000000000E+00
 Reduced forces (fred)
  2.83567793089736E-04  2.83567793089736E-04  0.00000000000000E+00
 -1.57455126092480E-04 -1.57455126092480E-04 -0.00000000000000E+00
 -1.23936537021858E-03  1.42384587546837E-04 -0.00000000000000E+00
  1.42384587546837E-04 -1.23936537021858E-03 -0.00000000000000E+00
 -2.06825521135509E-04 -2.06825521135509E-04 -0.00000000000000E+00
  1.17769363681000E-03  1.17769363681000E-03  0.00000000000000E+00
 Scale of Primitive Cell (acell) [bohr]
  9.13627987701335E+00  9.13627987701335E+00  6.13846034408143E+00
 Real space primitive translations (rprimd) [bohr]
  9.13627987700700E+00 -1.07720108911327E-05  0.00000000000000E+00
 -1.07720108911327E-05  9.13627987700700E+00  0.00000000000000E+00
  0.00000000000000E+00  0.00000000000000E+00  6.13846034408143E+00
 Unitary Cell Volume (ucvol) [Bohr^3]=  5.12387167785691E+02
 Angles (23,13,12)= [degrees]
  9.00000000000000E+01  9.00000000000000E+01  9.00001351076739E+01
 Lengths [Bohr]
  9.13627987701335E+00  9.13627987701335E+00  6.13846034408143E+00
 Stress tensor in cartesian coordinates (strten) [Ha/bohr^3]
  1.72829786921139E-06 -1.40897076129255E-08  0.00000000000000E+00
 -1.40897076129255E-08  1.72829786921139E-06  0.00000000000000E+00
  0.00000000000000E+00  0.00000000000000E+00  1.38037892046319E-06
 Total energy (etotal) [Ha]= -2.23793500221058E+02

 Difference of energy with previous step (new-old):
           Absolute (Ha)=-2.22121E-06
           Relative     =-9.92528E-09

--- Iteration: (  6/100) Internal Cycle: (1/1)
--------------------------------------------------------------------------------

---SELF-CONSISTENT-FIELD CONVERGENCE--------------------------------------------

     iter   Etot(hartree)      deltaE(h)  residm     vres2
 ETOT  1  -223.79349818393    -2.238E+02 7.884E-05 1.317E-02
 ETOT  2  -223.79349944353    -1.260E-06 6.413E-08 2.795E-03
 ETOT  3  -223.79350007655    -6.330E-07 4.218E-08 1.073E-03
 ETOT  4  -223.79350043266    -3.561E-07 8.456E-09 3.051E-05
 ETOT  5  -223.79350043497    -2.303E-09 9.978E-08 7.557E-06
 ETOT  6  -223.79350043620    -1.230E-09 2.014E-08 1.577E-06
 ETOT  7  -223.79350043651    -3.128E-10 5.395E-08 7.194E-09
