
.Version 8.6.3 of ABINIT 
.(MPI version, prepared for a x86_64_linux_gnu4.9 computer) 

.Copyright (C) 1998-2017 ABINIT group . 
 ABINIT comes with ABSOLUTELY NO WARRANTY.
 It is free software, and you are welcome to redistribute it
 under certain conditions (GNU General Public License,
 see ~abinit/COPYING or http://www.gnu.org/copyleft/gpl.txt).

 ABINIT is a project of the Universite Catholique de Louvain,
 Corning Inc. and other collaborators, see ~abinit/doc/developers/contributors.txt .
 Please read ~abinit/doc/users/acknowledgments.html for suggested
 acknowledgments of the ABINIT effort.
 For more information, see https://www.abinit.org .

.Starting date : Wed  9 May 2018.
- ( at 22h42 )
  
- input  file    -> AI_relax.in
- output file    -> AI_relax.out
- root for input  files -> relax_xi
- root for output files -> relax_xo


 Symmetries : space group Am m 2 (# 38); Bravais oC (1-face-center ortho.)
================================================================================
 Values of the parameters that define the memory need of the present run
     intxc =       0    ionmov =       2      iscf =       7    lmnmax =       6
     lnmax =       6     mgfft =      54  mpssoang =       3    mqgrid =    3001
     natom =       6  nloc_mem =       1    nspden =       1   nspinor =       1
    nsppol =       1      nsym =       4    n1xccc =    2501    ntypat =       2
    occopt =       1   xclevel =       2
-    mband =          27        mffmem =           1         mkmem =          21
       mpw =        6456          nfft =      104976          nkpt =          21
================================================================================
P This job should need less than                      92.327 Mbytes of memory.
  Rough estimation (10% accuracy) of disk space for files :
_ WF disk file :     55.858 Mbytes ; DEN or POT disk file :      0.803 Mbytes.
================================================================================

--------------------------------------------------------------------------------
------------- Echo of variables that govern the present computation ------------
--------------------------------------------------------------------------------
-
- outvars: echo of selected default values                                      
-   iomode0 =  0 , fftalg0 =112 , wfoptalg0 =  0
-
- outvars: echo of global parameters not present in the input file              
-  max_nthreads =    0
-
 -outvars: echo values of preprocessed input variables --------
            acell      9.1100000000E+00  9.1100000000E+00  6.1037000000E+00 Bohr
              amu      1.18710000E+02  1.59994000E+01
           diemac      1.20000000E+01
          dilatmx      1.05000000E+00
             ecut      3.75000000E+01 Hartree
           ecutsm      5.00000000E-01 Hartree
-          fftalg         112
           ionmov           2
           istwfk        2    0    3    0    0    0    7    0    0    0
                         0    0    0    0    4    0    5    0    0    0
                         9
              ixc          11
              kpt      0.00000000E+00  0.00000000E+00  0.00000000E+00
                       2.50000000E-01  0.00000000E+00  0.00000000E+00
                       5.00000000E-01  0.00000000E+00  0.00000000E+00
                       2.50000000E-01  2.50000000E-01  0.00000000E+00
                       5.00000000E-01  2.50000000E-01  0.00000000E+00
                      -2.50000000E-01  2.50000000E-01  0.00000000E+00
                       5.00000000E-01  5.00000000E-01  0.00000000E+00
                       0.00000000E+00  0.00000000E+00  2.50000000E-01
                       2.50000000E-01  0.00000000E+00  2.50000000E-01
                       5.00000000E-01  0.00000000E+00  2.50000000E-01
                       2.50000000E-01  2.50000000E-01  2.50000000E-01
                       5.00000000E-01  2.50000000E-01  2.50000000E-01
                      -2.50000000E-01  2.50000000E-01  2.50000000E-01
                       5.00000000E-01  5.00000000E-01  2.50000000E-01
                       0.00000000E+00  0.00000000E+00  5.00000000E-01
                       2.50000000E-01  0.00000000E+00  5.00000000E-01
                       5.00000000E-01  0.00000000E+00  5.00000000E-01
                       2.50000000E-01  2.50000000E-01  5.00000000E-01
                       5.00000000E-01  2.50000000E-01  5.00000000E-01
                      -2.50000000E-01  2.50000000E-01  5.00000000E-01
                       5.00000000E-01  5.00000000E-01  5.00000000E-01
         kptrlatt        4    0    0      0    4    0      0    0    4
          kptrlen      2.44148000E+01
P           mkmem          21
            natom           6
            nband          27
            ngfft          54      54      36
             nkpt          21
            nstep         100
             nsym           4
            ntime         100
           ntypat           2
              occ      2.000000  2.000000  2.000000  2.000000  2.000000  2.000000
                       2.000000  2.000000  2.000000  2.000000  2.000000  2.000000
                       2.000000  2.000000  2.000000  2.000000  2.000000  2.000000
                       2.000000  2.000000  2.000000  2.000000  2.000000  2.000000
                       2.000000  2.000000  0.000000
          optcell           2
          spgroup          38
           symrel      1  0  0   0  1  0   0  0  1       1  0  0   0  1  0   0  0 -1
                       0  1  0   1  0  0   0  0  1       0  1  0   1  0  0   0  0 -1
           toldfe      5.00000000E-13 Hartree
           tolmxf      1.00000000E-09
            typat      1  1  2  2  2  2
              wtk        0.01563    0.06250    0.03125    0.03125    0.06250    0.03125
                         0.01563    0.03125    0.12500    0.06250    0.06250    0.12500
                         0.06250    0.03125    0.01563    0.06250    0.03125    0.03125
                         0.06250    0.03125    0.01563
           xangst      0.0000000000E+00  0.0000000000E+00  0.0000000000E+00
                       2.4104021851E+00  2.4104021851E+00  1.6149694640E+00
                       3.8855683224E+00  9.3041524346E-01  1.6149694640E+00
                       9.3041524346E-01  3.8855683224E+00  1.6149694640E+00
                       1.4751661373E+00  1.4751661373E+00  0.0000000000E+00
                       3.3408174286E+00  3.3408174286E+00  0.0000000000E+00
            xcart      0.0000000000E+00  0.0000000000E+00  0.0000000000E+00
                       4.5550000000E+00  4.5550000000E+00  3.0518500000E+00
                       7.3426600000E+00  1.7582300000E+00  3.0518500000E+00
                       1.7582300000E+00  7.3426600000E+00  3.0518500000E+00
                       2.7876600000E+00  2.7876600000E+00  0.0000000000E+00
                       6.3132300000E+00  6.3132300000E+00  0.0000000000E+00
             xred      0.0000000000E+00  0.0000000000E+00  0.0000000000E+00
                       5.0000000000E-01  5.0000000000E-01  5.0000000000E-01
                       8.0600000000E-01  1.9300000000E-01  5.0000000000E-01
                       1.9300000000E-01  8.0600000000E-01  5.0000000000E-01
                       3.0600000000E-01  3.0600000000E-01  0.0000000000E+00
                       6.9300000000E-01  6.9300000000E-01  0.0000000000E+00
            znucl       50.00000    8.00000

================================================================================

 chkinp: Checking input parameters for consistency.

================================================================================
== DATASET  1 ==================================================================
-   nproc =    1

 Exchange-correlation functional for the present dataset will be:
  GGA: Perdew-Burke-Ernzerhof functional - ixc=11
 Citation for XC functional:
  J.P.Perdew, K.Burke, M.Ernzerhof, PRL 77, 3865 (1996)

 Real(R)+Recip(G) space primitive vectors, cartesian coordinates (Bohr,Bohr^-1):
 R(1)=  9.1100000  0.0000000  0.0000000  G(1)=  0.1097695  0.0000000  0.0000000
 R(2)=  0.0000000  9.1100000  0.0000000  G(2)=  0.0000000  0.1097695  0.0000000
 R(3)=  0.0000000  0.0000000  6.1037000  G(3)=  0.0000000  0.0000000  0.1638351
 Unit cell volume ucvol=  5.0655888E+02 bohr^3
 Angles (23,13,12)=  9.00000000E+01  9.00000000E+01  9.00000000E+01 degrees

 getcut: wavevector=  0.0000  0.0000  0.0000  ngfft=  54  54  36
         ecut(hartree)=     41.344   => boxcut(ratio)=   2.03770

--- Pseudopotential description ------------------------------------------------
- pspini: atom type   1  psp file is ../Pseudo_potentials/Sn_PBE.psp8
- pspatm: opening atomic psp file    ../Pseudo_potentials/Sn_PBE.psp8
- Sn    ONCVPSP-3.2.3.1  r_core=   2.27326   2.62311   1.85601
- 50.00000  14.00000    170510                znucl, zion, pspdat
    8   11    2    4       600   0.00000      pspcod,pspxc,lmax,lloc,mmax,r2well
    5.99000000000000    6.50000000000000    0.00000000000000   rchrg,fchrg,qchrg
     nproj     2     2     2
     extension_switch     1
  pspatm : epsatm=   32.65096653
         --- l  ekb(1:nproj) -->
             0    5.582184    0.748969
             1    4.193379    0.727317
             2   -5.282748   -1.526429
 pspatm: atomic psp has been read  and splines computed

- pspini: atom type   2  psp file is ../Pseudo_potentials/O_PBE.psp8
- pspatm: opening atomic psp file    ../Pseudo_potentials/O_PBE.psp8
- O     ONCVPSP-3.2.3.1  r_core=   1.35509   1.45563   1.26150
-  8.00000   6.00000    170504                znucl, zion, pspdat
    8   11    2    4       600   0.00000      pspcod,pspxc,lmax,lloc,mmax,r2well
    5.99000000000000    4.00000000000000    0.00000000000000   rchrg,fchrg,qchrg
     nproj     2     2     1
     extension_switch     1
  pspatm : epsatm=    6.19546011
         --- l  ekb(1:nproj) -->
             0    6.056735    0.824024
             1   -4.717130   -1.149271
             2   -1.331955
 pspatm: atomic psp has been read  and splines computed

   4.68435622E+03                                ecore*ucvol(ha*bohr**3)
--------------------------------------------------------------------------------

_setup2: Arith. and geom. avg. npw (full set) are    6436.547    6436.532

================================================================================

=== [ionmov= 2] Broyden-Fletcher-Goldfard-Shanno method (forces)            
================================================================================

--- Iteration: (  1/100) Internal Cycle: (1/1)
--------------------------------------------------------------------------------

---SELF-CONSISTENT-FIELD CONVERGENCE--------------------------------------------

     iter   Etot(hartree)      deltaE(h)  residm     vres2
 ETOT  1  -222.52992647497    -2.225E+02 3.029E-01 7.205E+02
 ETOT  2  -223.62699745180    -1.097E+00 7.887E-02 4.954E+02
 ETOT  3  -223.77838175914    -1.514E-01 8.325E-03 5.699E+01
 ETOT  4  -223.79219209084    -1.381E-02 8.907E-03 4.375E+00
 ETOT  5  -223.79177526342     4.168E-04 1.109E-03 5.596E+00
 ETOT  6  -223.79326103634    -1.486E-03 6.713E-04 8.151E-02
 ETOT  7  -223.79327386409    -1.283E-05 4.737E-04 5.853E-03
 ETOT  8  -223.79327456490    -7.008E-07 3.438E-04 1.941E-03
 ETOT  9  -223.79327486241    -2.975E-07 2.367E-04 3.418E-04
 ETOT 10  -223.79327492761    -6.521E-08 1.693E-04 8.436E-06
 ETOT 11  -223.79327492906    -1.442E-09 1.145E-04 1.459E-06
 ETOT 12  -223.79327492929    -2.341E-10 7.961E-05 1.011E-07
 ETOT 13  -223.79327492931    -2.200E-11 5.381E-05 4.801E-09
 ETOT 14  -223.79327492931    -9.095E-13 3.653E-05 2.899E-10
 ETOT 15  -223.79327492931     2.842E-14 2.493E-05 8.791E-12
 ETOT 16  -223.79327492931     3.126E-13 1.660E-05 2.291E-12

 At SCF step   16, etot is converged : 
  for the second time, diff in etot=  3.126E-13 < toldfe=  5.000E-13

 Cartesian components of stress tensor (hartree/bohr^3)
  sigma(1 1)= -5.79891468E-05  sigma(3 2)=  0.00000000E+00
  sigma(2 2)= -5.79891468E-05  sigma(3 1)=  0.00000000E+00
  sigma(3 3)= -1.00042308E-04  sigma(2 1)= -5.54091846E-08

 Integrated electronic density in atomic spheres:
 ------------------------------------------------
 Atom  Sphere_radius  Integrated_density
    1        2.00000         10.45050529
    2        2.00000         10.45050196
    3        2.00000          6.26675580
    4        2.00000          6.26675580
    5        2.00000          6.26326894
    6        2.00000          6.26351091

---OUTPUT-----------------------------------------------------------------------

 Cartesian coordinates (xcart) [bohr]
  0.00000000000000E+00  0.00000000000000E+00  0.00000000000000E+00
  4.55500000000000E+00  4.55500000000000E+00  3.05185000000000E+00
  7.34266000000000E+00  1.75823000000000E+00  3.05185000000000E+00
  1.75823000000000E+00  7.34266000000000E+00  3.05185000000000E+00
  2.78766000000000E+00  2.78766000000000E+00  0.00000000000000E+00
  6.31323000000000E+00  6.31323000000000E+00  0.00000000000000E+00
 Reduced coordinates (xred)
  0.00000000000000E+00  0.00000000000000E+00  0.00000000000000E+00
  5.00000000000000E-01  5.00000000000000E-01  5.00000000000000E-01
  8.06000000000000E-01  1.93000000000000E-01  5.00000000000000E-01
  1.93000000000000E-01  8.06000000000000E-01  5.00000000000000E-01
  3.06000000000000E-01  3.06000000000000E-01  0.00000000000000E+00
  6.93000000000000E-01  6.93000000000000E-01  0.00000000000000E+00
 Cartesian forces (fcart) [Ha/bohr]; max,rms= 8.33627E-04 4.32690E-04 (free atoms)
 -5.29448636840315E-04 -5.29448636840315E-04 -0.00000000000000E+00
 -6.76097704341658E-04 -6.76097704341658E-04 -0.00000000000000E+00
 -2.33436094379035E-04  2.16333197121186E-04 -0.00000000000000E+00
  2.16333197121186E-04 -2.33436094379035E-04 -0.00000000000000E+00
  3.89022189757926E-04  3.89022189757926E-04 -0.00000000000000E+00
  8.33627048681896E-04  8.33627048681896E-04 -0.00000000000000E+00
 Reduced forces (fred)
  4.82327708161527E-03  4.82327708161527E-03  0.00000000000000E+00
  6.15925008655251E-03  6.15925008655251E-03  0.00000000000000E+00
  2.12660281979301E-03 -1.97079542577400E-03 -0.00000000000000E+00
 -1.97079542577400E-03  2.12660281979301E-03 -0.00000000000000E+00
 -3.54399214869471E-03 -3.54399214869471E-03 -0.00000000000000E+00
 -7.59434241349207E-03 -7.59434241349207E-03 -0.00000000000000E+00
 Scale of Primitive Cell (acell) [bohr]
  9.11000000000000E+00  9.11000000000000E+00  6.10370000000000E+00
 Real space primitive translations (rprimd) [bohr]
  9.11000000000000E+00  0.00000000000000E+00  0.00000000000000E+00
  0.00000000000000E+00  9.11000000000000E+00  0.00000000000000E+00
  0.00000000000000E+00  0.00000000000000E+00  6.10370000000000E+00
 Unitary Cell Volume (ucvol) [Bohr^3]=  5.06558880770000E+02
 Angles (23,13,12)= [degrees]
  9.00000000000000E+01  9.00000000000000E+01  9.00000000000000E+01
 Lengths [Bohr]
  9.11000000000000E+00  9.11000000000000E+00  6.10370000000000E+00
 Stress tensor in cartesian coordinates (strten) [Ha/bohr^3]
 -5.79891468028941E-05 -5.54091845547864E-08  0.00000000000000E+00
 -5.54091845547864E-08 -5.79891468028941E-05  0.00000000000000E+00
  0.00000000000000E+00  0.00000000000000E+00 -1.00042308307197E-04
 Total energy (etotal) [Ha]= -2.23793274929312E+02

--- Iteration: (  2/100) Internal Cycle: (1/1)
--------------------------------------------------------------------------------

---SELF-CONSISTENT-FIELD CONVERGENCE--------------------------------------------

     iter   Etot(hartree)      deltaE(h)  residm     vres2
 ETOT  1  -223.79230377558    -2.238E+02 1.827E-05 7.565E+00
 ETOT  2  -223.79259796260    -2.942E-04 9.916E-06 2.479E+00
 ETOT  3  -223.79325595117    -6.580E-04 1.757E-05 6.139E-01
 ETOT  4  -223.79345389713    -1.979E-04 3.029E-06 1.594E-02
 ETOT  5  -223.79345566343    -1.766E-06 2.385E-06 7.994E-04
 ETOT  6  -223.79345563514     2.829E-08 6.456E-07 8.579E-04
 ETOT  7  -223.79345581023    -1.751E-07 6.940E-07 7.282E-06
 ETOT  8  -223.79345581198    -1.750E-09 2.372E-07 4.785E-07
 ETOT  9  -223.79345581204    -5.758E-11 2.614E-07 3.211E-07
 ETOT 10  -223.79345581208    -4.403E-11 9.320E-08 7.485E-08
 ETOT 11  -223.79345581210    -1.563E-11 1.083E-07 5.130E-10
 ETOT 12  -223.79345581210    -4.036E-12 3.956E-08 4.548E-11
 ETOT 13  -223.79345581210     2.814E-12 4.635E-08 7.394E-12
 ETOT 14  -223.79345581210     1.393E-12 1.729E-08 4.852E-13
 ETOT 15  -223.79345581210    -1.450E-12 2.018E-08 5.336E-14
 ETOT 16  -223.79345581210     2.530E-12 7.626E-09 1.639E-15
 ETOT 17  -223.79345581210    -1.791E-12 8.877E-09 2.171E-16
 ETOT 18  -223.79345581210     5.684E-14 3.384E-09 1.812E-17
 ETOT 19  -223.79345581210    -1.080E-12 3.942E-09 2.074E-19
 ETOT 20  -223.79345581210    -1.251E-12 1.510E-09 1.104E-20
 ETOT 21  -223.79345581210     1.137E-13 1.764E-09 2.136E-21
 ETOT 22  -223.79345581210    -8.527E-14 8.076E-10 4.720E-22

 At SCF step   22, etot is converged : 
  for the second time, diff in etot=  8.527E-14 < toldfe=  5.000E-13

 Cartesian components of stress tensor (hartree/bohr^3)
  sigma(1 1)= -2.27190502E-05  sigma(3 2)=  0.00000000E+00
  sigma(2 2)= -2.27190502E-05  sigma(3 1)=  0.00000000E+00
  sigma(3 3)= -4.18638626E-05  sigma(2 1)=  8.68957749E-09

 Integrated electronic density in atomic spheres:
 ------------------------------------------------
 Atom  Sphere_radius  Integrated_density
    1        2.00000         10.44948226
    2        2.00000         10.44889824
    3        2.00000          6.25502300
    4        2.00000          6.25502300
    5        2.00000          6.25795095
    6        2.00000          6.25713863

---OUTPUT-----------------------------------------------------------------------

 Cartesian coordinates (xcart) [bohr]
 -5.30371465261139E-04 -5.30371465261139E-04  0.00000000000000E+00
  4.56226208409882E+00  4.56226208409882E+00  3.06100942355822E+00
  7.35520584150738E+00  1.76152986754606E+00  3.06100942355822E+00
  1.76152986754606E+00  7.35520584150738E+00  3.06100942355822E+00
  2.79290858872237E+00  2.79290858872237E+00  0.00000000000000E+00
  6.32506903335344E+00  6.32506903335344E+00  0.00000000000000E+00
 Reduced coordinates (xred)
 -5.81173037146339E-05 -5.81173037146339E-05  0.00000000000000E+00
  4.99925785103804E-01  4.99925785103804E-01  5.00000000000000E-01
  8.05974375840354E-01  1.93023746783438E-01  5.00000000000000E-01
  1.93023746783438E-01  8.05974375840354E-01  5.00000000000000E-01
  3.06042702765067E-01  3.06042702765067E-01  0.00000000000000E+00
  6.93091506811052E-01  6.93091506811052E-01  0.00000000000000E+00
 Cartesian forces (fcart) [Ha/bohr]; max,rms= 5.96608E-04 3.06332E-04 (free atoms)
 -4.09166883398137E-04 -4.09166883398137E-04 -0.00000000000000E+00
 -4.48305675165410E-04 -4.48305675165410E-04 -0.00000000000000E+00
  2.01238065235168E-04 -1.67596396593705E-04 -0.00000000000000E+00
 -1.67596396593705E-04  2.01238065235168E-04 -0.00000000000000E+00
  5.96608063181449E-04  5.96608063181449E-04 -0.00000000000000E+00
  2.27222826740635E-04  2.27222826740635E-04 -0.00000000000000E+00
 Reduced forces (fred)
  3.73400735432880E-03  3.73400735432880E-03  0.00000000000000E+00
  4.09118322126311E-03  4.09118322126311E-03  0.00000000000000E+00
 -1.83646300651645E-03  1.52945321853983E-03 -0.00000000000000E+00
  1.52945321853983E-03 -1.83646300651645E-03 -0.00000000000000E+00
 -5.44457282825527E-03 -5.44457282825527E-03 -0.00000000000000E+00
 -2.07360795936002E-03 -2.07360795936002E-03 -0.00000000000000E+00
 Scale of Primitive Cell (acell) [bohr]
  9.12584843387149E+00  9.12584843387149E+00  6.12201884711644E+00
 Real space primitive translations (rprimd) [bohr]
  9.12584843382123E+00  3.02866602776463E-05  0.00000000000000E+00
  3.02866602776463E-05  9.12584843382123E+00  0.00000000000000E+00
  0.00000000000000E+00  0.00000000000000E+00  6.12201884711644E+00
 Unitary Cell Volume (ucvol) [Bohr^3]=  5.09848522801342E+02
 Angles (23,13,12)= [degrees]
  9.00000000000000E+01  9.00000000000000E+01  8.99996196961144E+01
 Lengths [Bohr]
  9.12584843387149E+00  9.12584843387149E+00  6.12201884711644E+00
 Stress tensor in cartesian coordinates (strten) [Ha/bohr^3]
 -2.27190502062116E-05  8.68957748993687E-09  0.00000000000000E+00
  8.68957748993687E-09 -2.27190502062116E-05  0.00000000000000E+00
  0.00000000000000E+00  0.00000000000000E+00 -4.18638626493856E-05
 Total energy (etotal) [Ha]= -2.23793455812099E+02

 Difference of energy with previous step (new-old):
           Absolute (Ha)=-1.80883E-04
           Relative     =-8.08258E-07

--- Iteration: (  3/100) Internal Cycle: (1/1)
--------------------------------------------------------------------------------

---SELF-CONSISTENT-FIELD CONVERGENCE--------------------------------------------

     iter   Etot(hartree)      deltaE(h)  residm     vres2
 ETOT  1  -223.79295029961    -2.238E+02 7.142E-07 3.528E+00
 ETOT  2  -223.79308250990    -1.322E-04 2.407E-07 1.198E+00
 ETOT  3  -223.79340247821    -3.200E-04 8.307E-06 2.887E-01
 ETOT  4  -223.79349547269    -9.299E-05 6.843E-07 7.565E-03
 ETOT  5  -223.79349632531    -8.526E-07 2.742E-08 3.360E-04
 ETOT  6  -223.79349631411     1.120E-08 6.002E-09 3.416E-04
 ETOT  7  -223.79349638580    -7.169E-08 2.041E-09 5.149E-06
 ETOT  8  -223.79349638696    -1.163E-09 1.400E-09 4.774E-07
 ETOT  9  -223.79349638703    -6.693E-11 7.954E-10 2.538E-07
 ETOT 10  -223.79349638707    -4.772E-11 9.578E-10 3.560E-08
 ETOT 11  -223.79349638708    -2.018E-12 6.823E-10 1.565E-10
 ETOT 12  -223.79349638708    -3.382E-12 8.357E-10 6.482E-11
 ETOT 13  -223.79349638708    -5.400E-13 6.141E-10 8.205E-12
 ETOT 14  -223.79349638708     1.108E-12 8.088E-10 1.232E-13
 ETOT 15  -223.79349638708     2.842E-14 5.784E-10 5.334E-14
 ETOT 16  -223.79349638708    -7.105E-13 7.942E-10 2.008E-15
 ETOT 17  -223.79349638708     2.387E-12 5.609E-10 4.651E-16
 ETOT 18  -223.79349638707     1.535E-12 7.831E-10 4.031E-17
 ETOT 19  -223.79349638708    -7.958E-13 5.512E-10 1.206E-17
 ETOT 20  -223.79349638708     2.558E-13 7.743E-10 1.353E-18
 ETOT 21  -223.79349638708    -1.904E-12 5.447E-10 1.487E-20
 ETOT 22  -223.79349638708     1.620E-12 7.670E-10 1.041E-21
 ETOT 23  -223.79349638708    -4.832E-13 5.395E-10 7.121E-22
 ETOT 24  -223.79349638708     1.990E-13 7.607E-10 4.229E-22

 At SCF step   24, etot is converged : 
  for the second time, diff in etot=  1.990E-13 < toldfe=  5.000E-13

 Cartesian components of stress tensor (hartree/bohr^3)
  sigma(1 1)=  6.64869940E-07  sigma(3 2)=  0.00000000E+00
  sigma(2 2)=  6.64869940E-07  sigma(3 1)=  0.00000000E+00
  sigma(3 3)= -3.12556102E-06  sigma(2 1)=  1.85263004E-08

 Integrated electronic density in atomic spheres:
 ------------------------------------------------
 Atom  Sphere_radius  Integrated_density
    1        2.00000         10.44469981
    2        2.00000         10.44468951
    3        2.00000          6.25062300
    4        2.00000          6.25062300
    5        2.00000          6.25217035
    6        2.00000          6.24793856

---OUTPUT-----------------------------------------------------------------------

 Cartesian coordinates (xcart) [bohr]
 -1.23507454728388E-03 -1.23507454728388E-03  0.00000000000000E+00
  4.56687588534518E+00  4.56687588534518E+00  3.06765873515226E+00
  7.36423549818295E+00  1.76332068085378E+00  3.06765873515226E+00
  1.76332068085378E+00  7.36423549818295E+00  3.06765873515226E+00
  2.79722865006186E+00  2.79722865006186E+00  0.00000000000000E+00
  6.33293281979286E+00  6.33293281979286E+00  0.00000000000000E+00
 Reduced coordinates (xred)
 -1.35178011797178E-04 -1.35178011797178E-04  0.00000000000000E+00
  4.99841247366867E-01  4.99841247366867E-01  5.00000000000000E-01
  8.06011731698681E-01  1.92992660030269E-01  5.00000000000000E-01
  1.92992660030269E-01  8.06011731698681E-01  5.00000000000000E-01
  3.06154643287744E-01  3.06154643287744E-01  0.00000000000000E+00
  6.93134895628235E-01  6.93134895628235E-01  0.00000000000000E+00
 Cartesian forces (fcart) [Ha/bohr]; max,rms= 5.59290E-04 2.83858E-04 (free atoms)
 -2.60609150606595E-04 -2.60609150606595E-04 -0.00000000000000E+00
 -2.12273873132616E-04 -2.12273873132616E-04 -0.00000000000000E+00
  4.07207766593417E-04 -3.23461788177379E-04 -0.00000000000000E+00
 -3.23461788177379E-04  4.07207766593417E-04 -0.00000000000000E+00
  5.59289975516340E-04  5.59289975516340E-04 -0.00000000000000E+00
 -1.70152930193167E-04 -1.70152930193167E-04 -0.00000000000000E+00
 Reduced forces (fred)
  2.38109530110868E-03  2.38109530110868E-03  0.00000000000000E+00
  1.93947265737883E-03  1.93947265737883E-03  0.00000000000000E+00
 -3.72049952823131E-03  2.95534160791640E-03 -0.00000000000000E+00
  2.95534160791640E-03 -3.72049952823131E-03 -0.00000000000000E+00
 -5.11003826826274E-03 -5.11003826826274E-03 -0.00000000000000E+00
  1.55462823009013E-03  1.55462823009013E-03  0.00000000000000E+00
 Scale of Primitive Cell (acell) [bohr]
  9.13663024128221E+00  9.13663024128221E+00  6.13531747030453E+00
 Real space primitive translations (rprimd) [bohr]
  9.13663024125459E+00  2.24647859899760E-05  0.00000000000000E+00
  2.24647859899760E-05  9.13663024125459E+00  0.00000000000000E+00
  0.00000000000000E+00  0.00000000000000E+00  6.13531747030453E+00
 Unitary Cell Volume (ucvol) [Bohr^3]=  5.12164106421624E+02
 Angles (23,13,12)= [degrees]
  9.00000000000000E+01  9.00000000000000E+01  8.99997182467954E+01
 Lengths [Bohr]
  9.13663024128221E+00  9.13663024128221E+00  6.13531747030453E+00
 Stress tensor in cartesian coordinates (strten) [Ha/bohr^3]
  6.64869939662888E-07  1.85263004083064E-08  0.00000000000000E+00
  1.85263004083064E-08  6.64869939662888E-07  0.00000000000000E+00
  0.00000000000000E+00  0.00000000000000E+00 -3.12556102305059E-06
 Total energy (etotal) [Ha]= -2.23793496387076E+02

 Difference of energy with previous step (new-old):
           Absolute (Ha)=-4.05750E-05
           Relative     =-1.81305E-07

--- Iteration: (  4/100) Internal Cycle: (1/1)
--------------------------------------------------------------------------------

---SELF-CONSISTENT-FIELD CONVERGENCE--------------------------------------------

     iter   Etot(hartree)      deltaE(h)  residm     vres2
 ETOT  1  -223.79349410329    -2.238E+02 5.074E-08 1.882E-02
 ETOT  2  -223.79349688036    -2.777E-06 4.486E-09 3.478E-03
 ETOT  3  -223.79349755904    -6.787E-07 2.996E-08 1.259E-03
 ETOT  4  -223.79349798988    -4.308E-07 4.811E-09 5.762E-05
 ETOT  5  -223.79349799924    -9.361E-09 2.026E-09 3.320E-06
 ETOT  6  -223.79349799947    -2.259E-10 1.344E-09 1.878E-06
 ETOT  7  -223.79349799980    -3.346E-10 1.557E-09 1.757E-07
 ETOT  8  -223.79349799985    -4.417E-11 1.148E-09 1.741E-09
 ETOT  9  -223.79349799985     5.684E-13 1.398E-09 1.167E-09
 ETOT 10  -223.79349799985    -4.547E-13 1.079E-09 1.637E-10
 ETOT 11  -223.79349799984     3.695E-12 1.325E-09 2.226E-12
 ETOT 12  -223.79349799985    -5.684E-12 1.047E-09 7.050E-14
 ETOT 13  -223.79349799984     3.809E-12 1.289E-09 6.115E-14
 ETOT 14  -223.79349799985    -1.535E-12 1.026E-09 9.512E-15
 ETOT 15  -223.79349799984     2.899E-12 1.267E-09 1.835E-16
 ETOT 16  -223.79349799984    -2.842E-13 1.011E-09 9.944E-18
 ETOT 17  -223.79349799984     6.821E-13 1.253E-09 1.102E-18
 ETOT 18  -223.79349799984    -2.842E-13 9.986E-10 1.358E-19
 ETOT 19  -223.79349799984    -9.948E-13 1.242E-09 8.227E-21
 ETOT 20  -223.79349799984     2.558E-13 9.884E-10 7.005E-22
 ETOT 21  -223.79349799984    -3.411E-13 1.234E-09 3.855E-22

 At SCF step   21, etot is converged : 
  for the second time, diff in etot=  3.411E-13 < toldfe=  5.000E-13

 Cartesian components of stress tensor (hartree/bohr^3)
  sigma(1 1)=  1.84370301E-06  sigma(3 2)=  0.00000000E+00
  sigma(2 2)=  1.84370301E-06  sigma(3 1)=  0.00000000E+00
  sigma(3 3)= -5.54274205E-07  sigma(2 1)=  9.04507319E-09

 Integrated electronic density in atomic spheres:
 ------------------------------------------------
 Atom  Sphere_radius  Integrated_density
    1        2.00000         10.44383791
    2        2.00000         10.44401453
    3        2.00000          6.25034969
    4        2.00000          6.25034969
    5        2.00000          6.25124941
    6        2.00000          6.24735751

---OUTPUT-----------------------------------------------------------------------

 Cartesian coordinates (xcart) [bohr]
 -1.54589110023642E-03 -1.54589110023642E-03  0.00000000000000E+00
  4.56677878423488E+00  4.56677878423488E+00  3.06829443730185E+00
  7.36495734336529E+00  1.76302169121058E+00  3.06829443730185E+00
  1.76302169121058E+00  7.36495734336529E+00  3.06829443730185E+00
  2.79797236644252E+00  2.79797236644252E+00  0.00000000000000E+00
  6.33300163684312E+00  6.33300163684312E+00  0.00000000000000E+00
 Reduced coordinates (xred)
 -1.69190523599193E-04 -1.69190523599193E-04  0.00000000000000E+00
  4.99812498789999E-01  4.99812498789999E-01  5.00000000000000E-01
  8.06060776998282E-01  1.92953676235947E-01  5.00000000000000E-01
  1.92953676235947E-01  8.06060776998282E-01  5.00000000000000E-01
  3.06224940179865E-01  3.06224940179865E-01  0.00000000000000E+00
  6.93117298319505E-01  6.93117298319505E-01  0.00000000000000E+00
 Cartesian forces (fcart) [Ha/bohr]; max,rms= 4.21238E-04 2.24502E-04 (free atoms)
 -1.97198370885254E-04 -1.97198370885254E-04 -0.00000000000000E+00
 -1.41744726897110E-04 -1.41744726897110E-04 -0.00000000000000E+00
  3.48716261856835E-04 -2.52260485321157E-04 -0.00000000000000E+00
 -2.52260485321157E-04  3.48716261856835E-04 -0.00000000000000E+00
  4.21237893685243E-04  4.21237893685242E-04 -0.00000000000000E+00
 -1.78750572438556E-04 -1.78750572438556E-04 -0.00000000000000E+00
 Reduced forces (fred)
  1.80179835163114E-03  1.80179835163114E-03  0.00000000000000E+00
  1.29511929601197E-03  1.29511929601197E-03  0.00000000000000E+00
 -3.18620798393775E-03  2.30489310092377E-03 -0.00000000000000E+00
  2.30489310092377E-03 -3.18620798393775E-03 -0.00000000000000E+00
 -3.84884387776348E-03 -3.84884387776348E-03 -0.00000000000000E+00
  1.63324111313435E-03  1.63324111313435E-03  0.00000000000000E+00
 Scale of Primitive Cell (acell) [bohr]
  9.13697246646975E+00  9.13697246646975E+00  6.13658887460370E+00
 Real space primitive translations (rprimd) [bohr]
  9.13697246646253E+00  1.14931035909201E-05  0.00000000000000E+00
  1.14931035909201E-05  9.13697246646253E+00  0.00000000000000E+00
  0.00000000000000E+00  0.00000000000000E+00  6.13658887460370E+00
 Unitary Cell Volume (ucvol) [Bohr^3]=  5.12308617036518E+02
 Angles (23,13,12)= [degrees]
  9.00000000000000E+01  9.00000000000000E+01  8.99998558589661E+01
 Lengths [Bohr]
  9.13697246646975E+00  9.13697246646975E+00  6.13658887460370E+00
 Stress tensor in cartesian coordinates (strten) [Ha/bohr^3]
  1.84370300666120E-06  9.04507318686844E-09  0.00000000000000E+00
  9.04507318686844E-09  1.84370300666120E-06  0.00000000000000E+00
  0.00000000000000E+00  0.00000000000000E+00 -5.54274205078614E-07
 Total energy (etotal) [Ha]= -2.23793497999844E+02

 Difference of energy with previous step (new-old):
           Absolute (Ha)=-1.61277E-06
           Relative     =-7.20650E-09

--- Iteration: (  5/100) Internal Cycle: (1/1)
--------------------------------------------------------------------------------

---SELF-CONSISTENT-FIELD CONVERGENCE--------------------------------------------

     iter   Etot(hartree)      deltaE(h)  residm     vres2
 ETOT  1  -223.79347754078    -2.238E+02 2.079E-07 1.018E-01
 ETOT  2  -223.79349823645    -2.070E-05 2.239E-08 5.932E-03
 ETOT  3  -223.79349992827    -1.692E-06 1.448E-07 1.155E-03
 ETOT  4  -223.79350018080    -2.525E-07 1.290E-08 1.998E-04
 ETOT  5  -223.79350021983    -3.904E-08 5.654E-09 4.281E-06
 ETOT  6  -223.79350022085    -1.014E-09 4.150E-09 8.632E-07
 ETOT  7  -223.79350022103    -1.816E-10 4.103E-09 8.473E-08
 ETOT  8  -223.79350022106    -3.112E-11 3.439E-09 1.529E-09
 ETOT  9  -223.79350022106     7.674E-13 3.635E-09 2.195E-09
 ETOT 10  -223.79350022106     2.473E-12 3.259E-09 2.722E-11
 ETOT 11  -223.79350022106    -3.411E-13 3.468E-09 1.232E-12
 ETOT 12  -223.79350022106    -1.705E-13 3.200E-09 1.889E-13

 At SCF step   12, etot is converged : 
  for the second time, diff in etot=  1.705E-13 < toldfe=  5.000E-13

 Cartesian components of stress tensor (hartree/bohr^3)
  sigma(1 1)=  1.72829787E-06  sigma(3 2)=  0.00000000E+00
  sigma(2 2)=  1.72829787E-06  sigma(3 1)=  0.00000000E+00
  sigma(3 3)=  1.38037892E-06  sigma(2 1)= -1.40897076E-08

 Integrated electronic density in atomic spheres:
 ------------------------------------------------
 Atom  Sphere_radius  Integrated_density
    1        2.00000         10.44443623
    2        2.00000         10.44395126
    3        2.00000          6.25146286
    4        2.00000          6.25146286
    5        2.00000          6.25051894
    6        2.00000          6.24898937

---OUTPUT-----------------------------------------------------------------------

 Cartesian coordinates (xcart) [bohr]
 -2.37634534087398E-03 -2.37634534087398E-03  0.00000000000000E+00
  4.56578392496084E+00  4.56578392496084E+00  3.06923017204072E+00
  7.36574664982253E+00  1.76186836173306E+00  3.06923017204072E+00
  1.76186836173306E+00  7.36574664982253E+00  3.06923017204072E+00
  2.79948743588881E+00  2.79948743588881E+00  0.00000000000000E+00
  6.33189019721590E+00  6.33189019721590E+00  0.00000000000000E+00
 Reduced coordinates (xred)
 -2.60100191179186E-04 -2.60100191179187E-04  0.00000000000000E+00
  4.99742714721929E-01  4.99742714721929E-01  5.00000000000000E-01
  8.06208744291832E-01  1.92844031700090E-01  5.00000000000000E-01
  1.92844031700090E-01  8.06208744291832E-01  5.00000000000000E-01
  3.06414730533487E-01  3.06414730533487E-01  0.00000000000000E+00
  6.93049878943841E-01  6.93049878943841E-01  0.00000000000000E+00
 Cartesian forces (fcart) [Ha/bohr]; max,rms= 1.35653E-04 6.41470E-05 (free atoms)
 -3.10375920226199E-05 -3.10375920226199E-05 -0.00000000000000E+00
  1.72340727142524E-05  1.72340727142524E-05 -0.00000000000000E+00
  1.35653156320517E-04 -1.55843656506070E-05 -0.00000000000000E+00
 -1.55843656506070E-05  1.35653156320517E-04 -0.00000000000000E+00
  2.26378534562218E-05  2.26378534562218E-05 -0.00000000000000E+00
 -1.28903124817764E-04 -1.28903124817764E-04 -0.00000000000000E+00
 Reduced forces (fred)
  2.83567793089736E-04  2.83567793089736E-04  0.00000000000000E+00
 -1.57455126092480E-04 -1.57455126092480E-04 -0.00000000000000E+00
 -1.23936537021858E-03  1.42384587546837E-04 -0.00000000000000E+00
  1.42384587546837E-04 -1.23936537021858E-03 -0.00000000000000E+00
 -2.06825521135509E-04 -2.06825521135509E-04 -0.00000000000000E+00
  1.17769363681000E-03  1.17769363681000E-03  0.00000000000000E+00
 Scale of Primitive Cell (acell) [bohr]
  9.13627987701335E+00  9.13627987701335E+00  6.13846034408143E+00
 Real space primitive translations (rprimd) [bohr]
  9.13627987700700E+00 -1.07720108911327E-05  0.00000000000000E+00
 -1.07720108911327E-05  9.13627987700700E+00  0.00000000000000E+00
  0.00000000000000E+00  0.00000000000000E+00  6.13846034408143E+00
 Unitary Cell Volume (ucvol) [Bohr^3]=  5.12387167785691E+02
 Angles (23,13,12)= [degrees]
  9.00000000000000E+01  9.00000000000000E+01  9.00001351076739E+01
 Lengths [Bohr]
  9.13627987701335E+00  9.13627987701335E+00  6.13846034408143E+00
 Stress tensor in cartesian coordinates (strten) [Ha/bohr^3]
  1.72829786921139E-06 -1.40897076129255E-08  0.00000000000000E+00
 -1.40897076129255E-08  1.72829786921139E-06  0.00000000000000E+00
  0.00000000000000E+00  0.00000000000000E+00  1.38037892046319E-06
 Total energy (etotal) [Ha]= -2.23793500221058E+02

 Difference of energy with previous step (new-old):
           Absolute (Ha)=-2.22121E-06
           Relative     =-9.92528E-09

--- Iteration: (  6/100) Internal Cycle: (1/1)
--------------------------------------------------------------------------------

---SELF-CONSISTENT-FIELD CONVERGENCE--------------------------------------------

     iter   Etot(hartree)      deltaE(h)  residm     vres2
 ETOT  1  -223.79349818393    -2.238E+02 7.884E-05 1.317E-02
 ETOT  2  -223.79349944353    -1.260E-06 6.413E-08 2.795E-03
 ETOT  3  -223.79350007655    -6.330E-07 4.218E-08 1.073E-03
 ETOT  4  -223.79350043266    -3.561E-07 8.456E-09 3.051E-05
 ETOT  5  -223.79350043497    -2.303E-09 9.978E-08 7.557E-06
 ETOT  6  -223.79350043620    -1.230E-09 2.014E-08 1.577E-06
 ETOT  7  -223.79350043651    -3.128E-10 5.395E-08 7.194E-09
 ETOT  8  -223.79350043651     4.547E-13 8.868E-09 3.519E-09
 ETOT  9  -223.79350043651    -3.951E-12 2.295E-08 1.769E-09
 ETOT 10  -223.79350043651     1.961E-12 4.060E-09 8.968E-11
 ETOT 11  -223.79350043651     2.160E-12 1.011E-08 8.419E-13
 ETOT 12  -223.79350043651    -1.563E-12 3.170E-09 6.934E-13
 ETOT 13  -223.79350043651     2.444E-12 5.031E-09 1.482E-13
 ETOT 14  -223.79350043651    -3.666E-12 3.158E-09 1.274E-15
 ETOT 15  -223.79350043651     3.951E-12 4.048E-09 3.437E-16
 ETOT 16  -223.79350043651    -3.325E-12 3.143E-09 2.099E-17
 ETOT 17  -223.79350043651    -2.842E-13 3.997E-09 2.951E-18
 ETOT 18  -223.79350043651    -1.137E-13 3.125E-09 4.627E-19

 At SCF step   18, etot is converged : 
  for the second time, diff in etot=  1.137E-13 < toldfe=  5.000E-13

 Cartesian components of stress tensor (hartree/bohr^3)
  sigma(1 1)=  6.51360488E-07  sigma(3 2)=  0.00000000E+00
  sigma(2 2)=  6.51360488E-07  sigma(3 1)=  0.00000000E+00
  sigma(3 3)=  2.46429549E-07  sigma(2 1)= -7.77334243E-09

 Integrated electronic density in atomic spheres:
 ------------------------------------------------
 Atom  Sphere_radius  Integrated_density
    1        2.00000         10.44422522
    2        2.00000         10.44374098
    3        2.00000          6.25082373
    4        2.00000          6.25082373
    5        2.00000          6.25043742
    6        2.00000          6.24928784

---OUTPUT-----------------------------------------------------------------------

 Cartesian coordinates (xcart) [bohr]
 -2.54047664865994E-03 -2.54047664865994E-03  0.00000000000000E+00
  4.56535809385973E+00  4.56535809385973E+00  3.06920245744521E+00
  7.36555217387982E+00  1.76156107052227E+00  3.06920245744521E+00
  1.76156107052227E+00  7.36555217387982E+00  3.06920245744521E+00
  2.79957481842343E+00  2.79957481842343E+00  0.00000000000000E+00
  6.33116789381619E+00  6.33116789381619E+00  0.00000000000000E+00
 Reduced coordinates (xred)
 -2.78086036672630E-04 -2.78086036672630E-04  0.00000000000000E+00
  4.99733913705696E-01  4.99733913705696E-01  5.00000000000000E-01
  8.06248778170118E-01  1.92824663318454E-01  5.00000000000000E-01
  1.92824663318454E-01  8.06248778170118E-01  5.00000000000000E-01
  3.06447479465921E-01  3.06447479465921E-01  0.00000000000000E+00
  6.93023251376483E-01  6.93023251376483E-01  0.00000000000000E+00
 Cartesian forces (fcart) [Ha/bohr]; max,rms= 8.26217E-05 4.39093E-05 (free atoms)
 -1.22503313324695E-06 -1.22503313324694E-06 -0.00000000000000E+00
  2.40466991898618E-05  2.40466991898618E-05 -0.00000000000000E+00
  7.10940446462203E-05  4.34856344591876E-05 -0.00000000000000E+00
  4.34856344591876E-05  7.10940446462203E-05 -0.00000000000000E+00
 -5.47796652445657E-05 -5.47796652445657E-05 -0.00000000000000E+00
 -8.26216799174570E-05 -8.26216799174570E-05 -0.00000000000000E+00
 Reduced forces (fred)
  1.11913856088802E-05  1.11913856088801E-05  0.00000000000000E+00
 -2.19680493490979E-04 -2.19680493490979E-04 -0.00000000000000E+00
 -6.49485347269578E-04 -3.97266236021580E-04 -0.00000000000000E+00
 -3.97266236021580E-04 -6.49485347269578E-04 -0.00000000000000E+00
  5.00443898731450E-04  5.00443898731450E-04  0.00000000000000E+00
  7.54796792441807E-04  7.54796792441807E-04  0.00000000000000E+00
 Scale of Primitive Cell (acell) [bohr]
  9.13558385949625E+00  9.13558385949625E+00  6.13840491489043E+00
 Real space primitive translations (rprimd) [bohr]
  9.13558385949431E+00 -5.96763971102504E-06  0.00000000000000E+00
 -5.96763971102504E-06  9.13558385949431E+00  0.00000000000000E+00
  0.00000000000000E+00  0.00000000000000E+00  6.13840491489043E+00
 Unitary Cell Volume (ucvol) [Bohr^3]=  5.12304475629823E+02
 Angles (23,13,12)= [degrees]
  9.00000000000000E+01  9.00000000000000E+01  9.00000748546725E+01
 Lengths [Bohr]
  9.13558385949625E+00  9.13558385949625E+00  6.13840491489043E+00
 Stress tensor in cartesian coordinates (strten) [Ha/bohr^3]
  6.51360487734232E-07 -7.77334243092844E-09  0.00000000000000E+00
 -7.77334243092844E-09  6.51360487737701E-07  0.00000000000000E+00
  0.00000000000000E+00  0.00000000000000E+00  2.46429549096566E-07
 Total energy (etotal) [Ha]= -2.23793500436512E+02

 Difference of energy with previous step (new-old):
           Absolute (Ha)=-2.15454E-07
           Relative     =-9.62736E-10

--- Iteration: (  7/100) Internal Cycle: (1/1)
--------------------------------------------------------------------------------

---SELF-CONSISTENT-FIELD CONVERGENCE--------------------------------------------

     iter   Etot(hartree)      deltaE(h)  residm     vres2
 ETOT  1  -223.79349995200    -2.238E+02 9.978E-06 3.700E-03
 ETOT  2  -223.79350021365    -2.617E-07 1.188E-06 8.165E-04
 ETOT  3  -223.79350040154    -1.879E-07 2.540E-08 2.931E-04
 ETOT  4  -223.79350049410    -9.256E-08 1.903E-07 8.744E-06
 ETOT  5  -223.79350049462    -5.169E-10 9.615E-07 2.970E-06
 ETOT  6  -223.79350049517    -5.488E-10 3.962E-08 4.349E-07
 ETOT  7  -223.79350049525    -8.072E-11 3.784E-07 5.410E-09
 ETOT  8  -223.79350049525    -2.274E-12 4.362E-08 1.041E-09
 ETOT  9  -223.79350049525     9.379E-13 2.091E-07 9.256E-10
 ETOT 10  -223.79350049525     1.251E-12 2.127E-08 2.168E-11
 ETOT 11  -223.79350049525    -4.718E-12 4.419E-07 3.147E-13
 ETOT 12  -223.79350049525     8.242E-13 1.057E-07 2.944E-13
 ETOT 13  -223.79350049525     1.251E-12 5.407E-07 5.671E-14
 ETOT 14  -223.79350049525     8.527E-14 2.506E-07 6.396E-16
 ETOT 15  -223.79350049525     2.274E-13 5.708E-07 8.615E-17

 At SCF step   15, etot is converged : 
  for the second time, diff in etot=  2.274E-13 < toldfe=  5.000E-13

 Cartesian components of stress tensor (hartree/bohr^3)
  sigma(1 1)=  4.82178451E-08  sigma(3 2)=  0.00000000E+00
  sigma(2 2)=  4.82178451E-08  sigma(3 1)=  0.00000000E+00
  sigma(3 3)= -4.07488067E-07  sigma(2 1)= -1.02666783E-10

 Integrated electronic density in atomic spheres:
 ------------------------------------------------
 Atom  Sphere_radius  Integrated_density
    1        2.00000         10.44409130
    2        2.00000         10.44360761
    3        2.00000          6.25120830
    4        2.00000          6.25120830
    5        2.00000          6.25038466
    6        2.00000          6.24844467

---OUTPUT-----------------------------------------------------------------------

 Cartesian coordinates (xcart) [bohr]
 -2.57975065751932E-03 -2.57975065751932E-03  0.00000000000000E+00
  4.56517517549970E+00  4.56517517549970E+00  3.06916388540744E+00
  7.36541173617804E+00  1.76150564667042E+00  3.06916388540744E+00
  1.76150564667042E+00  7.36541173617804E+00  3.06916388540744E+00
  2.79945507207078E+00  2.79945507207078E+00  0.00000000000000E+00
  6.33073855731203E+00  6.33073855731203E+00  0.00000000000000E+00
 Reduced coordinates (xred)
 -2.82397022076227E-04 -2.82397022076227E-04  0.00000000000000E+00
  4.99735069767214E-01  4.99735069767214E-01  5.00000000000000E-01
  8.06267970683245E-01  1.92826372849394E-01  5.00000000000000E-01
  1.92826372849394E-01  8.06267970683245E-01  5.00000000000000E-01
  3.06447358966536E-01  3.06447358966536E-01  0.00000000000000E+00
  6.93005624755686E-01  6.93005624755686E-01  0.00000000000000E+00
 Cartesian forces (fcart) [Ha/bohr]; max,rms= 6.00909E-05 3.51866E-05 (free atoms)
  1.33516070038004E-06  1.33516070038004E-06 -0.00000000000000E+00
  3.63844207484475E-06  3.63844207484475E-06 -0.00000000000000E+00
  4.45763348607007E-05  5.75884694256564E-05 -0.00000000000000E+00
  5.75884694256564E-05  4.45763348607007E-05 -0.00000000000000E+00
 -6.00908539738514E-05 -6.00908539738514E-05 -0.00000000000000E+00
 -4.70475530877305E-05 -4.70475530877305E-05 -0.00000000000000E+00
 Reduced forces (fred)
 -1.21969476497157E-05 -1.21969476497157E-05 -0.00000000000000E+00
 -3.32378623043449E-05 -3.32378623043449E-05 -0.00000000000000E+00
 -4.07213319893335E-04 -5.26081652891186E-04 -0.00000000000000E+00
 -5.26081652891186E-04 -4.07213319893335E-04 -0.00000000000000E+00
  5.48941412024155E-04  5.48941412024155E-04  0.00000000000000E+00
  4.29788370714427E-04  4.29788370714427E-04  0.00000000000000E+00
 Scale of Primitive Cell (acell) [bohr]
  9.13519080334963E+00  9.13519080334963E+00  6.13832777081488E+00
 Real space primitive translations (rprimd) [bohr]
  9.13519080334963E+00 -7.59383124679672E-08  0.00000000000000E+00
 -7.59383124679672E-08  9.13519080334963E+00  0.00000000000000E+00
  0.00000000000000E+00  0.00000000000000E+00  6.13832777081488E+00
 Unitary Cell Volume (ucvol) [Bohr^3]=  5.12253955236821E+02
 Angles (23,13,12)= [degrees]
  9.00000000000000E+01  9.00000000000000E+01  9.00000009525679E+01
 Lengths [Bohr]
  9.13519080334963E+00  9.13519080334963E+00  6.13832777081488E+00
 Stress tensor in cartesian coordinates (strten) [Ha/bohr^3]
  4.82178451333137E-08 -1.02666782537737E-10  0.00000000000000E+00
 -1.02666782537737E-10  4.82178451298443E-08  0.00000000000000E+00
  0.00000000000000E+00  0.00000000000000E+00 -4.07488066702516E-07
 Total energy (etotal) [Ha]= -2.23793500495250E+02

 Difference of energy with previous step (new-old):
           Absolute (Ha)=-5.87378E-08
           Relative     =-2.62464E-10

--- Iteration: (  8/100) Internal Cycle: (1/1)
--------------------------------------------------------------------------------

---SELF-CONSISTENT-FIELD CONVERGENCE--------------------------------------------

     iter   Etot(hartree)      deltaE(h)  residm     vres2
 ETOT  1  -223.79350014284    -2.238E+02 1.354E-03 3.021E-03
 ETOT  2  -223.79350040617    -2.633E-07 2.334E-05 4.178E-04
 ETOT  3  -223.79350047766    -7.149E-08 2.447E-07 2.254E-04
 ETOT  4  -223.79350053596    -5.830E-08 6.678E-06 5.489E-06
 ETOT  5  -223.79350053642    -4.648E-10 3.288E-06 2.569E-06
 ETOT  6  -223.79350053689    -4.690E-10 4.693E-07 1.867E-07
 ETOT  7  -223.79350053693    -3.959E-11 2.022E-06 4.352E-09
 ETOT  8  -223.79350053693     3.695E-13 1.101E-07 1.597E-10
 ETOT  9  -223.79350053693    -2.416E-12 2.409E-06 6.306E-11
 ETOT 10  -223.79350053693    -9.663E-13 1.511E-07 1.838E-11
 ETOT 11  -223.79350053693     2.103E-12 2.424E-06 1.451E-13
 ETOT 12  -223.79350053693     1.222E-12 2.173E-07 8.115E-14
 ETOT 13  -223.79350053693    -2.785E-12 2.395E-06 2.640E-15
 ETOT 14  -223.79350053693     2.473E-12 2.817E-07 2.222E-16
 ETOT 15  -223.79350053693     1.961E-12 2.352E-06 4.903E-18
 ETOT 16  -223.79350053693     6.537E-13 3.379E-07 5.164E-19
 ETOT 17  -223.79350053693     6.253E-13 2.299E-06 1.210E-19
 ETOT 18  -223.79350053693    -2.018E-12 3.849E-07 7.724E-21
 ETOT 19  -223.79350053693     1.023E-12 2.236E-06 5.842E-22
 ETOT 20  -223.79350053693     1.990E-13 4.229E-07 2.848E-22
 ETOT 21  -223.79350053693    -3.126E-13 2.167E-06 2.442E-22

 At SCF step   21, etot is converged : 
  for the second time, diff in etot=  3.126E-13 < toldfe=  5.000E-13

 Cartesian components of stress tensor (hartree/bohr^3)
  sigma(1 1)= -2.59113495E-07  sigma(3 2)=  0.00000000E+00
  sigma(2 2)= -2.59113495E-07  sigma(3 1)=  0.00000000E+00
  sigma(3 3)= -5.84547112E-07  sigma(2 1)=  4.48735844E-09

 Integrated electronic density in atomic spheres:
 ------------------------------------------------
 Atom  Sphere_radius  Integrated_density
    1        2.00000         10.44402534
    2        2.00000         10.44354198
    3        2.00000          6.25166523
    4        2.00000          6.25166523
    5        2.00000          6.25035430
    6        2.00000          6.24922240

---OUTPUT-----------------------------------------------------------------------

 Cartesian coordinates (xcart) [bohr]
 -2.60182175503588E-03 -2.60182175503589E-03  0.00000000000000E+00
  4.56505757068685E+00  4.56505757068685E+00  3.06919357550768E+00
  7.36537478133507E+00  1.76155291345831E+00  3.06919357550768E+00
  1.76155291345831E+00  7.36537478133507E+00  3.06919357550768E+00
  2.79928814384363E+00  2.79928814384363E+00  0.00000000000000E+00
  6.33039543206705E+00  6.33039543206705E+00  0.00000000000000E+00
 Reduced coordinates (xred)
 -2.84821055062721E-04 -2.84821055062722E-04  0.00000000000000E+00
  4.99736198757073E-01  4.99736198757073E-01  5.00000000000000E-01
  8.06286757482083E-01  1.92836710711213E-01  5.00000000000000E-01
  1.92836710711213E-01  8.06286757482083E-01  5.00000000000000E-01
  3.06437672377412E-01  3.06437672377412E-01  0.00000000000000E+00
  6.92987481727279E-01  6.92987481727279E-01  0.00000000000000E+00
 Cartesian forces (fcart) [Ha/bohr]; max,rms= 5.78626E-05 2.74397E-05 (free atoms)
 -3.42709598846002E-06 -3.42709598846002E-06 -0.00000000000000E+00
 -2.30873556396630E-05 -2.30873556396630E-05 -0.00000000000000E+00
  2.66216315050619E-05  5.78626128981478E-05 -0.00000000000000E+00
  5.78626128981478E-05  2.66216315050619E-05 -0.00000000000000E+00
 -4.47112369234734E-05 -4.47112369234734E-05 -0.00000000000000E+00
 -1.32585558516133E-05 -1.32585558516133E-05 -0.00000000000000E+00
 Reduced forces (fred)
  3.13062982559626E-05  3.13062982559626E-05  0.00000000000000E+00
  2.10901487449014E-04  2.10901487449014E-04  0.00000000000000E+00
 -2.43186976004253E-04 -5.28571084500207E-04 -0.00000000000000E+00
 -5.28571084500207E-04 -2.43186976004253E-04 -0.00000000000000E+00
  4.08434232140736E-04  4.08434232140736E-04  0.00000000000000E+00
  1.21116042658747E-04  1.21116042658747E-04  0.00000000000000E+00
 Scale of Primitive Cell (acell) [bohr]
  9.13493126292934E+00  9.13493126292934E+00  6.13838715101535E+00
 Real space primitive translations (rprimd) [bohr]
  9.13493126292867E+00  3.49273020930885E-06  0.00000000000000E+00
  3.49273020930885E-06  9.13493126292867E+00  0.00000000000000E+00
  0.00000000000000E+00  0.00000000000000E+00  6.13838715101535E+00
 Unitary Cell Volume (ucvol) [Bohr^3]=  5.12229803395984E+02
 Angles (23,13,12)= [degrees]
  9.00000000000000E+01  9.00000000000000E+01  8.99999561860524E+01
 Lengths [Bohr]
  9.13493126292934E+00  9.13493126292934E+00  6.13838715101535E+00
 Stress tensor in cartesian coordinates (strten) [Ha/bohr^3]
 -2.59113495295477E-07  4.48735844281206E-09  0.00000000000000E+00
  4.48735844281206E-09 -2.59113495292007E-07  0.00000000000000E+00
  0.00000000000000E+00  0.00000000000000E+00 -5.84547111957823E-07
 Total energy (etotal) [Ha]= -2.23793500536927E+02

 Difference of energy with previous step (new-old):
           Absolute (Ha)=-4.16773E-08
           Relative     =-1.86231E-10

--- Iteration: (  9/100) Internal Cycle: (1/1)
--------------------------------------------------------------------------------

---SELF-CONSISTENT-FIELD CONVERGENCE--------------------------------------------

     iter   Etot(hartree)      deltaE(h)  residm     vres2
 ETOT  1  -223.79349998533    -2.238E+02 1.535E-06 4.900E-03
 ETOT  2  -223.79350049048    -5.051E-07 1.816E-06 3.012E-04
 ETOT  3  -223.79350052434    -3.386E-08 2.488E-08 2.563E-04
 ETOT  4  -223.79350057559    -5.125E-08 2.159E-06 6.593E-06
 ETOT  5  -223.79350057649    -9.010E-10 2.021E-05 1.542E-06
 ETOT  6  -223.79350057674    -2.460E-10 6.092E-06 1.598E-07
 ETOT  7  -223.79350057678    -4.894E-11 1.278E-05 7.954E-09
 ETOT  8  -223.79350057679    -1.478E-12 2.838E-06 2.718E-10
 ETOT  9  -223.79350057679    -2.188E-12 5.092E-06 3.910E-10
 ETOT 10  -223.79350057679    -1.592E-12 1.208E-06 1.450E-11
 ETOT 11  -223.79350057679     5.116E-13 2.208E-06 1.532E-13
 ETOT 12  -223.79350057678     4.377E-12 5.348E-07 5.455E-14
 ETOT 13  -223.79350057679    -1.904E-12 9.682E-07 3.804E-15
 ETOT 14  -223.79350057679    -4.093E-12 2.350E-07 2.483E-16
 ETOT 15  -223.79350057679     3.411E-13 4.196E-07 2.494E-17
 ETOT 16  -223.79350057679     2.387E-12 1.017E-07 1.744E-18
 ETOT 17  -223.79350057679    -2.188E-12 1.797E-07 2.093E-19
 ETOT 18  -223.79350057679     8.242E-13 4.350E-08 2.170E-20
 ETOT 19  -223.79350057679     2.558E-13 7.634E-08 6.684E-22
 ETOT 20  -223.79350057679     4.263E-13 1.854E-08 3.106E-22

 At SCF step   20, etot is converged : 
  for the second time, diff in etot=  4.263E-13 < toldfe=  5.000E-13

 Cartesian components of stress tensor (hartree/bohr^3)
  sigma(1 1)= -3.49051700E-07  sigma(3 2)=  0.00000000E+00
  sigma(2 2)= -3.49051700E-07  sigma(3 1)=  0.00000000E+00
  sigma(3 3)= -3.46307734E-07  sigma(2 1)=  5.50527576E-09

 Integrated electronic density in atomic spheres:
 ------------------------------------------------
 Atom  Sphere_radius  Integrated_density
    1        2.00000         10.44401310
    2        2.00000         10.44352982
    3        2.00000          6.25165511
    4        2.00000          6.25165511
    5        2.00000          6.25125264
    6        2.00000          6.24920871

---OUTPUT-----------------------------------------------------------------------

 Cartesian coordinates (xcart) [bohr]
 -2.63198990137140E-03 -2.63198990137141E-03  0.00000000000000E+00
  4.56494045685412E+00  4.56494045685412E+00  3.06929575490027E+00
  7.36545087324376E+00  1.76170517091626E+00  3.06929575490027E+00
  1.76170517091626E+00  7.36545087324376E+00  3.06929575490027E+00
  2.79907444204189E+00  2.79907444204189E+00  0.00000000000000E+00
  6.33007610324914E+00  6.33007610324914E+00  0.00000000000000E+00
 Reduced coordinates (xred)
 -2.88129264522592E-04 -2.88129264522593E-04  0.00000000000000E+00
  4.99733276232354E-01  4.99733276232354E-01  5.00000000000000E-01
  8.06311115933105E-01  1.92857139544049E-01  5.00000000000000E-01
  1.92857139544049E-01  8.06311115933105E-01  5.00000000000000E-01
  3.06420347551215E-01  3.06420347551215E-01  0.00000000000000E+00
  6.92966250003798E-01  6.92966250003798E-01  0.00000000000000E+00
 Cartesian forces (fcart) [Ha/bohr]; max,rms= 5.08611E-05 2.55226E-05 (free atoms)
 -1.35159300296831E-05 -1.35159300296831E-05 -0.00000000000000E+00
 -5.08610586625459E-05 -5.08610586625459E-05 -0.00000000000000E+00
  1.15588120218085E-05  4.77701650046766E-05 -0.00000000000000E+00
  4.77701650046766E-05  1.15588120218085E-05 -0.00000000000000E+00
 -1.57074017100283E-05 -1.57074017100283E-05 -0.00000000000000E+00
  2.07554133757722E-05  2.07554133757722E-05 -0.00000000000000E+00
 Reduced forces (fred)
  1.23464693545487E-04  1.23464693545487E-04  0.00000000000000E+00
  4.64603250192878E-04  4.64603250192878E-04  0.00000000000000E+00
 -1.05587060394942E-04 -4.36368539467983E-04 -0.00000000000000E+00
 -4.36368539467983E-04 -1.05587060394942E-04 -0.00000000000000E+00
  1.43483247861263E-04  1.43483247861263E-04  0.00000000000000E+00
 -1.89595591736702E-04 -1.89595591736702E-04 -0.00000000000000E+00
 Scale of Primitive Cell (acell) [bohr]
  9.13474946071902E+00  9.13474946071902E+00  6.13859150980054E+00
 Real space primitive translations (rprimd) [bohr]
  9.13474946071798E+00  4.36490404165956E-06  0.00000000000000E+00
  4.36490404165956E-06  9.13474946071798E+00  0.00000000000000E+00
  0.00000000000000E+00  0.00000000000000E+00  6.13859150980054E+00
 Unitary Cell Volume (ucvol) [Bohr^3]=  5.12226467379813E+02
 Angles (23,13,12)= [degrees]
  9.00000000000000E+01  9.00000000000000E+01  8.99999452441294E+01
 Lengths [Bohr]
  9.13474946071902E+00  9.13474946071902E+00  6.13859150980054E+00
 Stress tensor in cartesian coordinates (strten) [Ha/bohr^3]
 -3.49051700439251E-07  5.50527575963740E-09  0.00000000000000E+00
  5.50527575963740E-09 -3.49051700442721E-07  0.00000000000000E+00
  0.00000000000000E+00  0.00000000000000E+00 -3.46307733503637E-07
 Total energy (etotal) [Ha]= -2.23793500576788E+02

 Difference of energy with previous step (new-old):
           Absolute (Ha)=-3.98615E-08
           Relative     =-1.78117E-10

--- Iteration: ( 10/100) Internal Cycle: (1/1)
--------------------------------------------------------------------------------

---SELF-CONSISTENT-FIELD CONVERGENCE--------------------------------------------

     iter   Etot(hartree)      deltaE(h)  residm     vres2
 ETOT  1  -223.79350024673    -2.238E+02 3.598E-08 2.797E-03
 ETOT  2  -223.79350057859    -3.319E-07 2.908E-08 6.855E-05
 ETOT  3  -223.79350059677    -1.817E-08 6.285E-09 3.333E-05
 ETOT  4  -223.79350059913    -2.368E-09 5.932E-10 9.730E-06
 ETOT  5  -223.79350060127    -2.132E-09 1.666E-09 4.765E-07
 ETOT  6  -223.79350060135    -8.703E-11 4.008E-10 4.728E-08
 ETOT  7  -223.79350060136    -7.333E-12 2.018E-09 1.083E-08
 ETOT  8  -223.79350060136    -3.212E-12 4.470E-10 7.228E-10
 ETOT  9  -223.79350060136    -5.969E-13 2.347E-09 1.727E-10
 ETOT 10  -223.79350060136     4.832E-13 6.030E-10 8.442E-12
 ETOT 11  -223.79350060136     5.002E-12 2.882E-09 3.515E-13
 ETOT 12  -223.79350060136    -1.563E-12 7.650E-10 2.688E-15
 ETOT 13  -223.79350060137    -5.542E-12 3.147E-09 7.825E-16
 ETOT 14  -223.79350060136     1.734E-12 7.673E-10 8.832E-17
 ETOT 15  -223.79350060136     2.842E-13 2.741E-09 7.280E-18
 ETOT 16  -223.79350060136     1.052E-12 5.004E-10 6.488E-19
 ETOT 17  -223.79350060136    -5.969E-13 1.527E-09 1.214E-20
 ETOT 18  -223.79350060136     2.558E-13 3.093E-10 6.683E-21
 ETOT 19  -223.79350060136    -5.116E-13 3.911E-10 8.966E-22
 ETOT 20  -223.79350060136     2.842E-14 7.744E-10 2.692E-22
 ETOT 21  -223.79350060136     2.842E-14 3.782E-10 2.066E-22

 At SCF step   21, etot is converged : 
  for the second time, diff in etot=  2.842E-14 < toldfe=  5.000E-13

 Cartesian components of stress tensor (hartree/bohr^3)
  sigma(1 1)= -2.26973208E-07  sigma(3 2)=  0.00000000E+00
  sigma(2 2)= -2.26973208E-07  sigma(3 1)=  0.00000000E+00
  sigma(3 3)=  6.10913398E-08  sigma(2 1)=  2.81015602E-09

 Integrated electronic density in atomic spheres:
 ------------------------------------------------
 Atom  Sphere_radius  Integrated_density
    1        2.00000         10.44404669
    2        2.00000         10.44356318
    3        2.00000          6.25120497
    4        2.00000          6.25120497
    5        2.00000          6.25127869
    6        2.00000          6.24919104

---OUTPUT-----------------------------------------------------------------------

 Cartesian coordinates (xcart) [bohr]
 -2.66977324411409E-03 -2.66977324411410E-03  0.00000000000000E+00
  4.56484844785120E+00  4.56484844785120E+00  3.06939212793414E+00
  7.36559881314613E+00  1.76188671351519E+00  3.06939212793414E+00
  1.76188671351519E+00  7.36559881314613E+00  3.06939212793414E+00
  2.79893916624373E+00  2.79893916624373E+00  0.00000000000000E+00
  6.32995430334781E+00  6.32995430334781E+00  0.00000000000000E+00
 Reduced coordinates (xred)
 -2.92266218574965E-04 -2.92266218574966E-04  0.00000000000000E+00
  4.99724460555817E-01  4.99724460555817E-01  5.00000000000000E-01
  8.06329203720530E-01  1.92877633735148E-01  5.00000000000000E-01
  1.92877633735148E-01  8.06329203720530E-01  5.00000000000000E-01
  3.06406309203562E-01  3.06406309203562E-01  0.00000000000000E+00
  6.92954659003516E-01  6.92954659003516E-01  0.00000000000000E+00
 Cartesian forces (fcart) [Ha/bohr]; max,rms= 5.69557E-05 2.58365E-05 (free atoms)
 -2.17192164575190E-05 -2.17192164575190E-05 -0.00000000000000E+00
 -5.69556569877653E-05 -5.69556569877652E-05 -0.00000000000000E+00
  6.76960622209115E-06  3.39560448464463E-05 -0.00000000000000E+00
  3.39560448464463E-05  6.76960622209115E-06 -0.00000000000000E+00
  5.31565071850591E-06  5.31565071850590E-06 -0.00000000000000E+00
  3.26335716582409E-05  3.26335716582409E-05 -0.00000000000000E+00
 Reduced forces (fred)
  1.98399196678058E-04  1.98399196678058E-04  0.00000000000000E+00
  5.20274597140528E-04  5.20274597140528E-04  0.00000000000000E+00
 -6.18385947152107E-05 -3.10179266610146E-04 -0.00000000000000E+00
 -3.10179266610146E-04 -6.18385947152107E-05 -0.00000000000000E+00
 -4.85570386222479E-05 -4.85570386222479E-05 -0.00000000000000E+00
 -2.98098893870981E-04 -2.98098893870981E-04 -0.00000000000000E+00
 Scale of Primitive Cell (acell) [bohr]
  9.13472850275803E+00  9.13472850275803E+00  6.13878425586828E+00
 Real space primitive translations (rprimd) [bohr]
  9.13472850275773E+00  2.35026867780087E-06  0.00000000000000E+00
  2.35026867780087E-06  9.13472850275773E+00  0.00000000000000E+00
  0.00000000000000E+00  0.00000000000000E+00  6.13878425586828E+00
 Unitary Cell Volume (ucvol) [Bohr^3]=  5.12240200329671E+02
 Angles (23,13,12)= [degrees]
  9.00000000000000E+01  9.00000000000000E+01  8.99999705168083E+01
 Lengths [Bohr]
  9.13472850275803E+00  9.13472850275803E+00  6.13878425586828E+00
 Stress tensor in cartesian coordinates (strten) [Ha/bohr^3]
 -2.26973207766851E-07  2.81015602443687E-09  0.00000000000000E+00
  2.81015602443687E-09 -2.26973207763381E-07  0.00000000000000E+00
  0.00000000000000E+00  0.00000000000000E+00  6.10913398271795E-08
 Total energy (etotal) [Ha]= -2.23793500601363E+02

 Difference of energy with previous step (new-old):
           Absolute (Ha)=-2.45747E-08
           Relative     =-1.09810E-10

--- Iteration: ( 11/100) Internal Cycle: (1/1)
--------------------------------------------------------------------------------

---SELF-CONSISTENT-FIELD CONVERGENCE--------------------------------------------

     iter   Etot(hartree)      deltaE(h)  residm     vres2
 ETOT  1  -223.79350020148    -2.238E+02 3.179E-07 2.733E-03
 ETOT  2  -223.79350059136    -3.899E-07 1.848E-09 9.652E-05
 ETOT  3  -223.79350061177    -2.041E-08 3.239E-09 5.343E-05
 ETOT  4  -223.79350062121    -9.440E-09 4.925E-10 1.658E-05
 ETOT  5  -223.79350062403    -2.818E-09 2.123E-10 1.554E-07
 ETOT  6  -223.79350062404    -6.196E-12 2.051E-10 9.333E-08
 ETOT  7  -223.79350062406    -2.623E-11 1.343E-10 1.536E-08
 ETOT  8  -223.79350062406    -1.421E-12 1.763E-10 8.901E-10
 ETOT  9  -223.79350062406     1.933E-12 1.240E-10 2.250E-10
 ETOT 10  -223.79350062407    -4.036E-12 1.695E-10 6.743E-12
 ETOT 11  -223.79350062406     4.235E-12 1.176E-10 1.258E-12
 ETOT 12  -223.79350062407    -5.883E-12 1.637E-10 3.655E-14
 ETOT 13  -223.79350062407    -5.684E-13 1.125E-10 3.460E-15
 ETOT 14  -223.79350062406     6.708E-12 1.581E-10 6.263E-17
 ETOT 15  -223.79350062407    -4.945E-12 1.082E-10 9.783E-18
 ETOT 16  -223.79350062407    -6.253E-13 1.531E-10 1.604E-18
 ETOT 17  -223.79350062407     3.411E-13 1.046E-10 8.185E-20
 ETOT 18  -223.79350062407    -3.411E-13 1.487E-10 7.646E-21

 At SCF step   18, etot is converged : 
  for the second time, diff in etot=  3.411E-13 < toldfe=  5.000E-13

 Cartesian components of stress tensor (hartree/bohr^3)
  sigma(1 1)= -4.80791093E-08  sigma(3 2)=  0.00000000E+00
  sigma(2 2)= -4.80791093E-08  sigma(3 1)=  0.00000000E+00
  sigma(3 3)=  4.36053506E-07  sigma(2 1)= -1.00188204E-09

 Integrated electronic density in atomic spheres:
 ------------------------------------------------
 Atom  Sphere_radius  Integrated_density
    1        2.00000         10.44408918
    2        2.00000         10.44360526
    3        2.00000          6.25088141
    4        2.00000          6.25088141
    5        2.00000          6.25183386
    6        2.00000          6.24916061

---OUTPUT-----------------------------------------------------------------------

 Cartesian coordinates (xcart) [bohr]
 -2.73499466159439E-03 -2.73499466159440E-03  0.00000000000000E+00
  4.56472369590945E+00  4.56472369590945E+00  3.06946114458122E+00
  7.36579849358991E+00  1.76211012612890E+00  3.06946114458122E+00
  1.76211012612890E+00  7.36579849358991E+00  3.06946114458122E+00
  2.79884291647480E+00  2.79884291647480E+00  0.00000000000000E+00
  6.32993152187647E+00  6.32993152187647E+00  0.00000000000000E+00
 Reduced coordinates (xred)
 -2.99404660215288E-04 -2.99404660215290E-04  0.00000000000000E+00
  4.99708305227080E-01  4.99708305227080E-01  5.00000000000000E-01
  8.06346833340080E-01  1.92901325034722E-01  5.00000000000000E-01
  1.92901325034722E-01  8.06346833340080E-01  5.00000000000000E-01
  3.06394240606887E-01  3.06394240606887E-01  0.00000000000000E+00
  6.92948700451443E-01  6.92948700451443E-01  0.00000000000000E+00
 Cartesian forces (fcart) [Ha/bohr]; max,rms= 4.46212E-05 2.17666E-05 (free atoms)
 -2.69457289192674E-05 -2.69457289192674E-05 -0.00000000000000E+00
 -4.46211551054545E-05 -4.46211551054545E-05 -0.00000000000000E+00
  6.33655494455409E-06  1.79529727841067E-05 -0.00000000000000E+00
  1.79529727841067E-05  6.33655494455409E-06 -0.00000000000000E+00
  1.78542546686779E-05  1.78542546686779E-05 -0.00000000000000E+00
  2.94231016273831E-05  2.94231016273831E-05 -0.00000000000000E+00
 Reduced forces (fred)
  2.46143211979313E-04  2.46143211979313E-04  0.00000000000000E+00
  4.07604280173331E-04  4.07604280173331E-04  0.00000000000000E+00
 -5.78830063609052E-05 -1.63996401336918E-04 -0.00000000000000E+00
 -1.63996401336918E-04 -5.78830063609052E-05 -0.00000000000000E+00
 -1.63094626417867E-04 -1.63094626417867E-04 -0.00000000000000E+00
 -2.68773458036953E-04 -2.68773458036953E-04 -0.00000000000000E+00
 Scale of Primitive Cell (acell) [bohr]
  9.13477712716768E+00  9.13477712716768E+00  6.13892228916244E+00
 Real space primitive translations (rprimd) [bohr]
  9.13477712716766E+00 -6.02220526239286E-07  0.00000000000000E+00
 -6.02220526239286E-07  9.13477712716766E+00  0.00000000000000E+00
  0.00000000000000E+00  0.00000000000000E+00  6.13892228916244E+00
 Unitary Cell Volume (ucvol) [Bohr^3]=  5.12257171752780E+02
 Angles (23,13,12)= [degrees]
  9.00000000000000E+01  9.00000000000000E+01  9.00000075545783E+01
 Lengths [Bohr]
  9.13477712716768E+00  9.13477712716768E+00  6.13892228916244E+00
 Stress tensor in cartesian coordinates (strten) [Ha/bohr^3]
 -4.80791093430966E-08 -1.00188204124039E-09  0.00000000000000E+00
 -1.00188204124039E-09 -4.80791093465660E-08  0.00000000000000E+00
  0.00000000000000E+00  0.00000000000000E+00  4.36053506441825E-07
 Total energy (etotal) [Ha]= -2.23793500624067E+02

 Difference of energy with previous step (new-old):
           Absolute (Ha)=-2.27036E-08
           Relative     =-1.01449E-10

--- Iteration: ( 12/100) Internal Cycle: (1/1)
--------------------------------------------------------------------------------

---SELF-CONSISTENT-FIELD CONVERGENCE--------------------------------------------

     iter   Etot(hartree)      deltaE(h)  residm     vres2
 ETOT  1  -223.79350011642    -2.238E+02 3.387E-07 2.741E-03
 ETOT  2  -223.79350057684    -4.604E-07 1.248E-09 2.098E-04
 ETOT  3  -223.79350060510    -2.826E-08 4.193E-09 1.601E-04
 ETOT  4  -223.79350064288    -3.779E-08 9.908E-10 7.700E-06
 ETOT  5  -223.79350064401    -1.129E-09 4.573E-11 5.381E-07
 ETOT  6  -223.79350064414    -1.283E-10 3.964E-11 1.203E-07
 ETOT  7  -223.79350064417    -2.370E-11 2.793E-11 5.468E-09
 ETOT  8  -223.79350064417    -4.036E-12 3.857E-11 1.313E-09
 ETOT  9  -223.79350064417    -1.990E-13 2.381E-11 1.652E-10
 ETOT 10  -223.79350064417    -7.105E-13 3.770E-11 6.015E-12
 ETOT 11  -223.79350064417     4.860E-12 2.257E-11 2.721E-13
 ETOT 12  -223.79350064417    -4.633E-12 3.651E-11 4.335E-14
 ETOT 13  -223.79350064417     4.491E-12 2.162E-11 2.737E-15
 ETOT 14  -223.79350064417    -5.002E-12 3.533E-11 7.202E-17
 ETOT 15  -223.79350064417     3.098E-12 2.084E-11 2.514E-17
 ETOT 16  -223.79350064417    -7.105E-13 3.420E-11 7.092E-19
 ETOT 17  -223.79350064417     9.948E-13 2.019E-11 1.464E-19
 ETOT 18  -223.79350064417    -4.263E-13 3.316E-11 9.954E-21
 ETOT 19  -223.79350064417     7.674E-13 1.964E-11 1.441E-21
 ETOT 20  -223.79350064417    -1.023E-12 3.222E-11 4.338E-22
 ETOT 21  -223.79350064417     2.842E-13 1.919E-11 2.885E-22
 ETOT 22  -223.79350064417    -5.684E-14 3.138E-11 2.398E-22

 At SCF step   22, etot is converged : 
  for the second time, diff in etot=  5.684E-14 < toldfe=  5.000E-13

 Cartesian components of stress tensor (hartree/bohr^3)
  sigma(1 1)=  6.54048380E-08  sigma(3 2)=  0.00000000E+00
  sigma(2 2)=  6.54048379E-08  sigma(3 1)=  0.00000000E+00
  sigma(3 3)=  5.75392351E-07  sigma(2 1)= -3.49395648E-09

 Integrated electronic density in atomic spheres:
 ------------------------------------------------
 Atom  Sphere_radius  Integrated_density
    1        2.00000         10.44411081
    2        2.00000         10.44362644
    3        2.00000          6.25091269
    4        2.00000          6.25091269
    5        2.00000          6.25188530
    6        2.00000          6.24912100

---OUTPUT-----------------------------------------------------------------------

 Cartesian coordinates (xcart) [bohr]
 -2.83260261554469E-03 -2.83260261554471E-03  0.00000000000000E+00
  4.56456275986625E+00  4.56456275986625E+00  3.06946942831610E+00
  7.36600654091783E+00  1.76234102989255E+00  3.06946942831610E+00
  1.76234102989255E+00  7.36600654091783E+00  3.06946942831610E+00
  2.79878779433841E+00  2.79878779433841E+00  0.00000000000000E+00
  6.32996599811182E+00  6.32996599811182E+00  0.00000000000000E+00
 Reduced coordinates (xred)
 -3.10087803017885E-04 -3.10087803017887E-04  0.00000000000000E+00
  4.99687188798280E-01  4.99687188798280E-01  5.00000000000000E-01
  8.06363828535601E-01  1.92925386224916E-01  5.00000000000000E-01
  1.92925386224916E-01  8.06363828535601E-01  5.00000000000000E-01
  3.06386061178153E-01  3.06386061178153E-01  0.00000000000000E+00
  6.92947623066065E-01  6.92947623066065E-01  0.00000000000000E+00
 Cartesian forces (fcart) [Ha/bohr]; max,rms= 2.59416E-05 1.34755E-05 (free atoms)
 -2.59415577085217E-05 -2.59415577085217E-05 -0.00000000000000E+00
 -1.82989280366108E-05 -1.82989280366108E-05 -0.00000000000000E+00
  6.97095304130602E-06  3.87649827925717E-06 -0.00000000000000E+00
  3.87649827925717E-06  6.97095304130602E-06 -0.00000000000000E+00
  1.83287686181156E-05  1.83287686181156E-05 -0.00000000000000E+00
  1.50642658064537E-05  1.50642658064537E-05 -0.00000000000000E+00
 Reduced forces (fred)
  2.36971991485340E-04  2.36971991485340E-04  0.00000000000000E+00
  1.67157788580217E-04  1.67157788580217E-04  0.00000000000000E+00
 -6.36785520906631E-05 -3.54111853436362E-05 -0.00000000000000E+00
 -3.54111853436362E-05 -6.36785520906631E-05 -0.00000000000000E+00
 -1.67430377532112E-04 -1.67430377532112E-04 -0.00000000000000E+00
 -1.37609665099146E-04 -1.37609665099146E-04 -0.00000000000000E+00
 Scale of Primitive Cell (acell) [bohr]
  9.13484308546051E+00  9.13484308546051E+00  6.13893885663221E+00
 Real space primitive translations (rprimd) [bohr]
  9.13484308546014E+00 -2.60487112695240E-06  0.00000000000000E+00
 -2.60487112695240E-06  9.13484308546014E+00  0.00000000000000E+00
  0.00000000000000E+00  0.00000000000000E+00  6.13893885663221E+00
 Unitary Cell Volume (ucvol) [Bohr^3]=  5.12265951834846E+02
 Angles (23,13,12)= [degrees]
  9.00000000000000E+01  9.00000000000000E+01  9.00000326766690E+01
 Lengths [Bohr]
  9.13484308546051E+00  9.13484308546051E+00  6.13893885663221E+00
 Stress tensor in cartesian coordinates (strten) [Ha/bohr^3]
  6.54048379518379E-08 -3.49395647600124E-09  0.00000000000000E+00
 -3.49395647600124E-09  6.54048379483685E-08  0.00000000000000E+00
  0.00000000000000E+00  0.00000000000000E+00  5.75392350904425E-07
 Total energy (etotal) [Ha]= -2.23793500644168E+02

 Difference of energy with previous step (new-old):
           Absolute (Ha)=-2.01013E-08
           Relative     =-8.98205E-11

--- Iteration: ( 13/100) Internal Cycle: (1/1)
--------------------------------------------------------------------------------

---SELF-CONSISTENT-FIELD CONVERGENCE--------------------------------------------

     iter   Etot(hartree)      deltaE(h)  residm     vres2
 ETOT  1  -223.79350030393    -2.238E+02 4.096E-06 1.615E-03
 ETOT  2  -223.79350058300    -2.791E-07 2.676E-09 2.174E-04
 ETOT  3  -223.79350061884    -3.584E-08 2.487E-09 1.307E-04
 ETOT  4  -223.79350065531    -3.647E-08 5.510E-10 3.415E-06
 ETOT  5  -223.79350065573    -4.261E-10 2.885E-11 7.954E-07
 ETOT  6  -223.79350065591    -1.809E-10 1.113E-11 7.018E-08
 ETOT  7  -223.79350065593    -1.756E-11 7.170E-12 3.901E-09
 ETOT  8  -223.79350065593    -3.695E-13 8.254E-12 1.286E-09
 ETOT  9  -223.79350065593    -1.478E-12 4.987E-12 1.376E-10
 ETOT 10  -223.79350065593     6.111E-12 7.528E-12 3.583E-12
 ETOT 11  -223.79350065593    -5.116E-12 4.465E-12 5.171E-14
 ETOT 12  -223.79350065593     2.046E-12 7.083E-12 1.898E-14
 ETOT 13  -223.79350065593     2.473E-12 4.594E-12 2.239E-15
 ETOT 14  -223.79350065593    -5.286E-12 6.717E-12 4.223E-17
 ETOT 15  -223.79350065593     1.336E-12 4.617E-12 2.023E-17
 ETOT 16  -223.79350065594    -3.610E-12 6.431E-12 5.608E-18
 ETOT 17  -223.79350065594    -9.663E-13 4.647E-12 1.412E-19
 ETOT 18  -223.79350065594    -5.400E-13 6.298E-12 3.875E-20
 ETOT 19  -223.79350065594    -2.842E-13 4.695E-12 1.358E-21
 ETOT 20  -223.79350065594    -8.527E-14 6.273E-12 2.831E-22

 At SCF step   20, etot is converged : 
  for the second time, diff in etot=  8.527E-14 < toldfe=  5.000E-13

 Cartesian components of stress tensor (hartree/bohr^3)
  sigma(1 1)=  4.23121484E-08  sigma(3 2)=  0.00000000E+00
  sigma(2 2)=  4.23121484E-08  sigma(3 1)=  0.00000000E+00
  sigma(3 3)=  3.94718140E-07  sigma(2 1)= -2.96737819E-09

 Integrated electronic density in atomic spheres:
 ------------------------------------------------
 Atom  Sphere_radius  Integrated_density
    1        2.00000         10.44518026
    2        2.00000         10.44487666
    3        2.00000          6.25091229
    4        2.00000          6.25091229
    5        2.00000          6.25191214
    6        2.00000          6.24909315

---OUTPUT-----------------------------------------------------------------------

 Cartesian coordinates (xcart) [bohr]
 -2.93007890783212E-03 -2.93007890783214E-03  0.00000000000000E+00
  4.56443431497971E+00  4.56443431497971E+00  3.06941177464726E+00
  7.36614431826232E+00  1.76249282580805E+00  3.06941177464726E+00
  1.76249282580805E+00  7.36614431826232E+00  3.06941177464726E+00
  2.79877992899429E+00  2.79877992899429E+00  0.00000000000000E+00
  6.33001288663428E+00  6.33001288663428E+00  0.00000000000000E+00
 Reduced coordinates (xred)
 -3.20757185632323E-04 -3.20757185632325E-04  0.00000000000000E+00
  4.99670879498504E-01  4.99670879498504E-01  5.00000000000000E-01
  8.06375305338984E-01  1.92941112783386E-01  5.00000000000000E-01
  1.92941112783386E-01  8.06375305338984E-01  5.00000000000000E-01
  3.06383821551292E-01  3.06383821551292E-01  0.00000000000000E+00
  6.92949638013462E-01  6.92949638013462E-01  0.00000000000000E+00
 Cartesian forces (fcart) [Ha/bohr]; max,rms= 1.80233E-05 7.31251E-06 (free atoms)
 -1.80233119458257E-05 -1.80233119458257E-05 -0.00000000000000E+00
  5.39317582619877E-06  5.39317582619877E-06 -0.00000000000000E+00
  6.22761029625297E-06 -2.64046113379147E-06 -0.00000000000000E+00
 -2.64046113379147E-06  6.22761029625297E-06 -0.00000000000000E+00
  9.03181501795076E-06  9.03181501795076E-06 -0.00000000000000E+00
  1.11719392146377E-08  1.11719392146381E-08 -0.00000000000000E+00
 Reduced forces (fred)
  1.64640820368954E-04  1.64640820368954E-04  0.00000000000000E+00
 -4.92660225317261E-05 -4.92660225317261E-05 -0.00000000000000E+00
 -5.68885027293142E-05  2.41203199076074E-05 -0.00000000000000E+00
  2.41203199076074E-05 -5.68885027293142E-05 -0.00000000000000E+00
 -8.25045606737364E-05 -8.25045606737364E-05 -0.00000000000000E+00
 -1.02054341784615E-07 -1.02054341784619E-07 -0.00000000000000E+00
 Scale of Primitive Cell (acell) [bohr]
  9.13488385288396E+00  9.13488385288396E+00  6.13882354929453E+00
 Real space primitive translations (rprimd) [bohr]
  9.13488385288368E+00 -2.26930847113225E-06  0.00000000000000E+00
 -2.26930847113225E-06  9.13488385288368E+00  0.00000000000000E+00
  0.00000000000000E+00  0.00000000000000E+00  6.13882354929453E+00
 Unitary Cell Volume (ucvol) [Bohr^3]=  5.12260902228062E+02
 Angles (23,13,12)= [degrees]
  9.00000000000000E+01  9.00000000000000E+01  9.00000284670938E+01
 Lengths [Bohr]
  9.13488385288396E+00  9.13488385288396E+00  6.13882354929453E+00
 Stress tensor in cartesian coordinates (strten) [Ha/bohr^3]
  4.23121483614231E-08 -2.96737818516882E-09  0.00000000000000E+00
 -2.96737818516882E-09  4.23121483648925E-08  0.00000000000000E+00
  0.00000000000000E+00  0.00000000000000E+00  3.94718139860861E-07
 Total energy (etotal) [Ha]= -2.23793500655938E+02

 Difference of energy with previous step (new-old):
           Absolute (Ha)=-1.17698E-08
           Relative     =-5.25921E-11

--- Iteration: ( 14/100) Internal Cycle: (1/1)
--------------------------------------------------------------------------------

---SELF-CONSISTENT-FIELD CONVERGENCE--------------------------------------------

     iter   Etot(hartree)      deltaE(h)  residm     vres2
 ETOT  1  -223.79350059547    -2.238E+02 1.997E-08 3.162E-04
 ETOT  2  -223.79350063823    -4.275E-08 4.095E-11 5.889E-05
 ETOT  3  -223.79350065131    -1.308E-08 5.318E-10 2.503E-05
 ETOT  4  -223.79350065975    -8.443E-09 9.382E-11 6.630E-07
 ETOT  5  -223.79350065981    -5.940E-11 7.437E-12 2.168E-07
 ETOT  6  -223.79350065985    -3.791E-11 6.008E-12 4.742E-08
 ETOT  7  -223.79350065986    -7.816E-12 4.327E-12 5.852E-10
 ETOT  8  -223.79350065986     9.379E-13 4.821E-12 2.671E-10
 ETOT  9  -223.79350065986    -3.666E-12 4.059E-12 6.926E-11
 ETOT 10  -223.79350065986     5.116E-12 4.545E-12 2.584E-12
 ETOT 11  -223.79350065986    -2.331E-12 3.910E-12 2.934E-14
 ETOT 12  -223.79350065986    -3.467E-12 4.356E-12 1.875E-14
 ETOT 13  -223.79350065986     1.961E-12 3.764E-12 4.545E-15
 ETOT 14  -223.79350065986    -4.547E-13 4.206E-12 4.539E-17
 ETOT 15  -223.79350065986     3.809E-12 3.640E-12 1.811E-17
 ETOT 16  -223.79350065986    -1.364E-12 4.077E-12 5.451E-19
 ETOT 17  -223.79350065986    -1.648E-12 3.538E-12 1.462E-19
 ETOT 18  -223.79350065986     7.105E-13 3.966E-12 6.081E-21
 ETOT 19  -223.79350065986     1.052E-12 3.456E-12 8.053E-22
 ETOT 20  -223.79350065986    -1.421E-13 3.871E-12 2.644E-22
 ETOT 21  -223.79350065986     8.527E-14 3.392E-12 2.159E-22

 At SCF step   21, etot is converged : 
  for the second time, diff in etot=  8.527E-14 < toldfe=  5.000E-13

 Cartesian components of stress tensor (hartree/bohr^3)
  sigma(1 1)= -3.30603396E-08  sigma(3 2)=  0.00000000E+00
  sigma(2 2)= -3.30603396E-08  sigma(3 1)=  0.00000000E+00
  sigma(3 3)=  1.40762816E-07  sigma(2 1)= -9.65039063E-10

 Integrated electronic density in atomic spheres:
 ------------------------------------------------
 Atom  Sphere_radius  Integrated_density
    1        2.00000         10.44515767
    2        2.00000         10.44485425
    3        2.00000          6.25090982
    4        2.00000          6.25090982
    5        2.00000          6.25190758
    6        2.00000          6.24909193

---OUTPUT-----------------------------------------------------------------------

 Cartesian coordinates (xcart) [bohr]
 -2.98271704922819E-03 -2.98271704922821E-03  0.00000000000000E+00
  4.56440220471834E+00  4.56440220471834E+00  3.06934898489218E+00
  7.36618827204918E+00  1.76253032853201E+00  3.06934898489218E+00
  1.76253032853201E+00  7.36618827204918E+00  3.06934898489218E+00
  2.79879718244055E+00  2.79879718244055E+00  0.00000000000000E+00
  6.33003687921138E+00  6.33003687921138E+00  0.00000000000000E+00
 Reduced coordinates (xred)
 -3.26518965886198E-04 -3.26518965886199E-04  0.00000000000000E+00
  4.99666533290162E-01  4.99666533290162E-01  5.00000000000000E-01
  8.06378877631893E-01  1.92944795426250E-01  5.00000000000000E-01
  1.92944795426250E-01  8.06378877631893E-01  5.00000000000000E-01
  3.06385200692155E-01  3.06385200692155E-01  0.00000000000000E+00
  6.92951111925423E-01  6.92951111925423E-01  0.00000000000000E+00
 Cartesian forces (fcart) [Ha/bohr]; max,rms= 1.14231E-05 5.44595E-06 (free atoms)
 -9.29791758815902E-06 -9.29791758815902E-06 -0.00000000000000E+00
  1.14230572524224E-05  1.14230572524224E-05 -0.00000000000000E+00
  4.15975825849944E-06 -2.02308431195127E-06 -0.00000000000000E+00
[...]
 ETOT  9  -223.79350066138     1.791E-12 1.287E-12 2.902E-19
 ETOT 10  -223.79350066138    -4.263E-13 9.338E-13 1.936E-21
 ETOT 11  -223.79350066138    -1.137E-12 1.287E-12 5.793E-22
 ETOT 12  -223.79350066138     5.400E-13 9.332E-13 3.282E-22
 ETOT 13  -223.79350066138     5.684E-14 1.286E-12 2.561E-22
 ETOT 14  -223.79350066138    -2.558E-13 9.327E-13 2.057E-22

 At SCF step   14, etot is converged : 
  for the second time, diff in etot=  2.558E-13 < toldfe=  5.000E-13

 Cartesian components of stress tensor (hartree/bohr^3)
  sigma(1 1)= -1.04277698E-13  sigma(3 2)=  0.00000000E+00
  sigma(2 2)= -1.04277698E-13  sigma(3 1)=  0.00000000E+00
  sigma(3 3)= -1.00308303E-12  sigma(2 1)=  2.77807806E-15

 Integrated electronic density in atomic spheres:
 ------------------------------------------------
 Atom  Sphere_radius  Integrated_density
    1        2.00000         10.44516515
    2        2.00000         10.44486208
    3        2.00000          6.25091546
    4        2.00000          6.25091546
    5        2.00000          6.25188967
    6        2.00000          6.24912078

---OUTPUT-----------------------------------------------------------------------

 Cartesian coordinates (xcart) [bohr]
 -3.01835703412595E-03 -3.01835703412596E-03  0.00000000000000E+00
  4.56447690776650E+00  4.56447690776650E+00  3.06929925061874E+00
  7.36628227031983E+00  1.76254582123865E+00  3.06929925061874E+00
  1.76254582123865E+00  7.36628227031983E+00  3.06929925061874E+00
  2.79882987397179E+00  2.79882987397179E+00  0.00000000000000E+00
  6.33007975454576E+00  6.33007975454576E+00  0.00000000000000E+00
 Reduced coordinates (xred)
 -3.30417240895203E-04 -3.30417240895204E-04  0.00000000000000E+00
  4.99669803453457E-01  4.99669803453457E-01  5.00000000000000E-01
  8.06381296673974E-01  1.92944547325403E-01  5.00000000000000E-01
  1.92944547325403E-01  8.06381296673974E-01  5.00000000000000E-01
  3.06385770217745E-01  3.06385770217745E-01  0.00000000000000E+00
  6.92948999570313E-01  6.92948999570313E-01  0.00000000000000E+00
 Cartesian forces (fcart) [Ha/bohr]; max,rms= 8.45822E-11 4.11307E-11 (free atoms)
 -2.03857269289062E-11 -2.03857269289062E-11 -0.00000000000000E+00
  8.45822192210036E-11  8.45822192210036E-11 -0.00000000000000E+00
  6.02418670198437E-12  3.95511080682799E-11 -0.00000000000000E+00
  3.95511080687034E-11  6.02418670198437E-12 -0.00000000000000E+00
 -5.87834049777756E-11 -5.87834049777756E-11 -0.00000000000000E+00
 -5.09883820841625E-11 -5.09883820841625E-11 -0.00000000000000E+00
 Reduced forces (fred)
  1.86223340237717E-10  1.86223340237717E-10  0.00000000000000E+00
 -7.72657430514262E-10 -7.72657430514262E-10 -0.00000000000000E+00
 -5.50308634515799E-11 -3.61298838895341E-10 -0.00000000000000E+00
 -3.61298838899210E-10 -5.50308634515799E-11 -0.00000000000000E+00
  5.36985610750312E-10  5.36985610750312E-10  0.00000000000000E+00
  4.65778181869286E-10  4.65778181869286E-10  0.00000000000000E+00
 Scale of Primitive Cell (acell) [bohr]
  9.13498651928287E+00  9.13498651928287E+00  6.13859850123749E+00
 Real space primitive translations (rprimd) [bohr]
  9.13498651928287E+00 -2.17614747635408E-08  0.00000000000000E+00
 -2.17614747635408E-08  9.13498651928287E+00  0.00000000000000E+00
  0.00000000000000E+00  0.00000000000000E+00  6.13859850123749E+00
 Unitary Cell Volume (ucvol) [Bohr^3]=  5.12253637025033E+02
 Angles (23,13,12)= [degrees]
  9.00000000000000E+01  9.00000000000000E+01  9.00000002729814E+01
 Lengths [Bohr]
  9.13498651928287E+00  9.13498651928287E+00  6.13859850123749E+00
 Stress tensor in cartesian coordinates (strten) [Ha/bohr^3]
 -1.04277697587918E-13  2.77807806075104E-15  0.00000000000000E+00
  2.77807806075104E-15 -1.04277697587918E-13  0.00000000000000E+00
  0.00000000000000E+00  0.00000000000000E+00 -1.00308303330188E-12
 Total energy (etotal) [Ha]= -2.23793500661382E+02

 Difference of energy with previous step (new-old):
           Absolute (Ha)=-3.12639E-13
           Relative     =-1.39700E-15

 At Broyd/MD step  24, gradients are converged : 
  max grad (force/stress) = 1.0031E-10 < tolmxf= 1.0000E-09 ha/bohr (free atoms)

================================================================================

 ----iterations are completed or convergence reached----

 Mean square residual over all n,k,spin=   3.3816E-15; max=  9.3266E-13
 reduced coordinates (array xred) for    6 atoms
      -0.000330417241     -0.000330417241      0.000000000000
       0.499669803453      0.499669803453      0.500000000000
       0.806381296674      0.192944547325      0.500000000000
       0.192944547325      0.806381296674      0.500000000000
       0.306385770218      0.306385770218      0.000000000000
       0.692948999570      0.692948999570      0.000000000000
 rms dE/dt=  1.9961E-05; max dE/dt=  2.4447E-05; dE/dt below (all hartree)
    1       0.000024446772      0.000024446772      0.000000000000
    2       0.000024445813      0.000024445813      0.000000000000
    3       0.000024446530      0.000024446224      0.000000000000
    4       0.000024446224      0.000024446530      0.000000000000
    5       0.000024447122      0.000024447122      0.000000000000
    6       0.000024447051      0.000024447051      0.000000000000

 cartesian coordinates (angstrom) at end:
    1     -0.00159724574985    -0.00159724574985     0.00000000000000
    2      2.41541714872539     2.41541714872539     1.62420320976980
    3      3.89806868949386     0.93269907769504     1.62420320976980
    4      0.93269907769504     3.89806868949386     1.62420320976980
    5      1.48107698002670     1.48107698002670     0.00000000000000
    6      3.34973393466260     3.34973393466260     0.00000000000000

 cartesian forces (hartree/bohr) at end:
    1     -0.00000000002039    -0.00000000002039    -0.00000000000000
    2      0.00000000008458     0.00000000008458    -0.00000000000000
    3      0.00000000000602     0.00000000003955    -0.00000000000000
    4      0.00000000003955     0.00000000000602    -0.00000000000000
    5     -0.00000000005878    -0.00000000005878    -0.00000000000000
    6     -0.00000000005099    -0.00000000005099    -0.00000000000000
 frms,max,avg= 4.1130706E-11 8.4582219E-11  -2.676E-06 -2.676E-06  0.000E+00 h/b

 cartesian forces (eV/Angstrom) at end:
    1     -0.00000000104828    -0.00000000104828    -0.00000000000000
    2      0.00000000434939     0.00000000434939    -0.00000000000000
    3      0.00000000030978     0.00000000203380    -0.00000000000000
    4      0.00000000203380     0.00000000030978    -0.00000000000000
    5     -0.00000000302276    -0.00000000302276    -0.00000000000000
    6     -0.00000000262193    -0.00000000262193    -0.00000000000000
 frms,max,avg= 2.1150257E-09 4.3493922E-09  -1.376E-04 -1.376E-04  0.000E+00 e/A
 length scales=  9.134986519283  9.134986519283  6.138598501237 bohr
              =  4.834026666781  4.834026666781  3.248406419540 angstroms
 prteigrs : about to open file relax_xo_EIG
 Fermi (or HOMO) energy (hartree) =   0.15146   Average Vxc (hartree)=  -0.40912
 Eigenvalues (hartree) for nkpt=  21  k points:
 kpt#   1, nband= 27, wtk=  0.01563, kpt=  0.0000  0.0000  0.0000 (reduced coord)
  -0.62275   -0.60002   -0.59277   -0.59174   -0.59174   -0.58881   -0.58804   -0.58561
  -0.58518   -0.58518   -0.53174   -0.46868   -0.46868   -0.41513   -0.14076    0.00925
   0.00925    0.01290    0.04601    0.07756    0.07945    0.10448    0.10448    0.12553
   0.12553    0.15146    0.17324
 prteigrs : prtvol=0 or 1, do not print more k-points.


--------------------------------------------------------------------------------
 Components of total free energy (in Hartree) :

    Kinetic energy  =  1.39789730377316E+02
    Hartree energy  =  5.07557009608189E+01
    XC energy       = -6.10363555581397E+01
    Ewald energy    = -1.50713010635876E+02
    PspCore energy  =  9.14460314754056E+00
    Loc. psp. energy= -1.55673905361054E+02
    NL   psp  energy= -5.60602635919870E+01
    >>>>>>>>> Etotal= -2.23793500661382E+02

 Other information on the energy :
    Total energy(eV)= -6.08973085187002E+03 ; Band energy (Ha)=  -1.4547313563E+01
--------------------------------------------------------------------------------
 rms coord change=  2.3993E-04   atom, delta coord (reduced):
     1       -0.000330417241     -0.000330417241      0.000000000000
     2       -0.000330196547     -0.000330196547      0.000000000000
     3        0.000381296674     -0.000055452675      0.000000000000
     4       -0.000055452675      0.000381296674      0.000000000000
     5        0.000385770218      0.000385770218      0.000000000000
     6       -0.000051000430     -0.000051000430      0.000000000000

 Cartesian components of stress tensor (hartree/bohr^3)
  sigma(1 1)= -1.04277698E-13  sigma(3 2)=  0.00000000E+00
  sigma(2 2)= -1.04277698E-13  sigma(3 1)=  0.00000000E+00
  sigma(3 3)= -1.00308303E-12  sigma(2 1)=  2.77807806E-15

-Cartesian components of stress tensor (GPa)         [Pressure=  1.1883E-08 GPa]
- sigma(1 1)= -3.06795527E-09  sigma(3 2)=  0.00000000E+00
- sigma(2 2)= -3.06795527E-09  sigma(3 1)=  0.00000000E+00
- sigma(3 3)= -2.95117168E-08  sigma(2 1)=  8.17338646E-11

== END DATASET(S) ==============================================================
================================================================================
  
 -outvars: echo values of variables after computation  --------
            acell      9.1349865193E+00  9.1349865193E+00  6.1385985012E+00 Bohr
              amu      1.18710000E+02  1.59994000E+01
           diemac      1.20000000E+01
          dilatmx      1.05000000E+00
             ecut      3.75000000E+01 Hartree
           ecutsm      5.00000000E-01 Hartree
           etotal     -2.2379350066E+02
            fcart     -2.0385726929E-11 -2.0385726929E-11 -0.0000000000E+00
                       8.4582219221E-11  8.4582219221E-11 -0.0000000000E+00
                       6.0241867020E-12  3.9551108068E-11 -0.0000000000E+00
                       3.9551108069E-11  6.0241867020E-12 -0.0000000000E+00
                      -5.8783404978E-11 -5.8783404978E-11 -0.0000000000E+00
                      -5.0988382084E-11 -5.0988382084E-11 -0.0000000000E+00
-          fftalg         112
           ionmov           2
           istwfk        2    0    3    0    0    0    7    0    0    0
                         0    0    0    0    4    0    5    0    0    0
                         9
              ixc          11
              kpt      0.00000000E+00  0.00000000E+00  0.00000000E+00
                       2.50000000E-01  0.00000000E+00  0.00000000E+00
                       5.00000000E-01  0.00000000E+00  0.00000000E+00
                       2.50000000E-01  2.50000000E-01  0.00000000E+00
                       5.00000000E-01  2.50000000E-01  0.00000000E+00
                      -2.50000000E-01  2.50000000E-01  0.00000000E+00
                       5.00000000E-01  5.00000000E-01  0.00000000E+00
                       0.00000000E+00  0.00000000E+00  2.50000000E-01
                       2.50000000E-01  0.00000000E+00  2.50000000E-01
                       5.00000000E-01  0.00000000E+00  2.50000000E-01
                       2.50000000E-01  2.50000000E-01  2.50000000E-01
                       5.00000000E-01  2.50000000E-01  2.50000000E-01
                      -2.50000000E-01  2.50000000E-01  2.50000000E-01
                       5.00000000E-01  5.00000000E-01  2.50000000E-01
                       0.00000000E+00  0.00000000E+00  5.00000000E-01
                       2.50000000E-01  0.00000000E+00  5.00000000E-01
                       5.00000000E-01  0.00000000E+00  5.00000000E-01
                       2.50000000E-01  2.50000000E-01  5.00000000E-01
                       5.00000000E-01  2.50000000E-01  5.00000000E-01
                      -2.50000000E-01  2.50000000E-01  5.00000000E-01
                       5.00000000E-01  5.00000000E-01  5.00000000E-01
         kptrlatt        4    0    0      0    4    0      0    0    4
          kptrlen      2.44148000E+01
P           mkmem          21
            natom           6
            nband          27
            ngfft          54      54      36
             nkpt          21
            nstep         100
             nsym           4
            ntime         100
           ntypat           2
              occ      2.000000  2.000000  2.000000  2.000000  2.000000  2.000000
                       2.000000  2.000000  2.000000  2.000000  2.000000  2.000000
                       2.000000  2.000000  2.000000  2.000000  2.000000  2.000000
                       2.000000  2.000000  2.000000  2.000000  2.000000  2.000000
                       2.000000  2.000000  0.000000
          optcell           2
            rprim      1.0000000000E+00 -2.3822120282E-09  0.0000000000E+00
                      -2.3822120282E-09  1.0000000000E+00  0.0000000000E+00
                       0.0000000000E+00  0.0000000000E+00  1.0000000000E+00
          spgroup          38
           strten     -1.0427769759E-13 -1.0427769759E-13 -1.0030830333E-12
                       0.0000000000E+00  0.0000000000E+00  2.7780780608E-15
           symrel      1  0  0   0  1  0   0  0  1       1  0  0   0  1  0   0  0 -1
                       0  1  0   1  0  0   0  0  1       0  1  0   1  0  0   0  0 -1
           toldfe      5.00000000E-13 Hartree
           tolmxf      1.00000000E-09
            typat      1  1  2  2  2  2
              wtk        0.01563    0.06250    0.03125    0.03125    0.06250    0.03125
                         0.01563    0.03125    0.12500    0.06250    0.06250    0.12500
                         0.06250    0.03125    0.01563    0.06250    0.03125    0.03125
                         0.06250    0.03125    0.01563
           xangst     -1.5972457498E-03 -1.5972457498E-03  0.0000000000E+00
                       2.4154171487E+00  2.4154171487E+00  1.6242032098E+00
                       3.8980686895E+00  9.3269907770E-01  1.6242032098E+00
                       9.3269907770E-01  3.8980686895E+00  1.6242032098E+00
                       1.4810769800E+00  1.4810769800E+00  0.0000000000E+00
                       3.3497339347E+00  3.3497339347E+00  0.0000000000E+00
            xcart     -3.0183570341E-03 -3.0183570341E-03  0.0000000000E+00
                       4.5644769078E+00  4.5644769078E+00  3.0692992506E+00
                       7.3662822703E+00  1.7625458212E+00  3.0692992506E+00
                       1.7625458212E+00  7.3662822703E+00  3.0692992506E+00
                       2.7988298740E+00  2.7988298740E+00  0.0000000000E+00
                       6.3300797545E+00  6.3300797545E+00  0.0000000000E+00
             xred     -3.3041724090E-04 -3.3041724090E-04  0.0000000000E+00
                       4.9966980345E-01  4.9966980345E-01  5.0000000000E-01
                       8.0638129667E-01  1.9294454733E-01  5.0000000000E-01
                       1.9294454733E-01  8.0638129667E-01  5.0000000000E-01
                       3.0638577022E-01  3.0638577022E-01  0.0000000000E+00
                       6.9294899957E-01  6.9294899957E-01  0.0000000000E+00
            znucl       50.00000    8.00000

================================================================================


- Timing analysis has been suppressed with timopt=0



================================================================================

 Suggested references for the acknowledgment of ABINIT usage.

 The users of ABINIT have little formal obligations with respect to the ABINIT group
 (those specified in the GNU General Public License, http://www.gnu.org/copyleft/gpl.txt).
 However, it is common practice in the scientific literature,
 to acknowledge the efforts of people that have made the research possible.
 In this spirit, please find below suggested citations of work written by ABINIT developers,
 corresponding to implementations inside of ABINIT that you have used in the present run.
 Note also that it will be of great value to readers of publications presenting these results,
 to read papers enabling them to understand the theoretical formalism and details
 of the ABINIT implementation.
 For information on why they are suggested, see also https://www.abinit.org/about/?text=acknowledgments.
-
- [1] Recent developments in the ABINIT software package.
- Computer Phys. Comm. 205, 106 (2016).
- X.Gonze, F.Jollet, F.Abreu Araujo, D.Adams, B.Amadon, T.Applencourt,
- C.Audouze, J.-M.Beuken, J.Bieder, A.Bokhanchuk, E.Bousquet, F.Bruneval
- D.Caliste, M.Cote, F.Dahm, F.Da Pieve, M.Delaveau, M.Di Gennaro,
- B.Dorado, C.Espejo, G.Geneste, L.Genovese, A.Gerossier, M.Giantomassi,
- Y.Gillet, D.R.Hamann, L.He, G.Jomard, J.Laflamme Janssen, S.Le Roux,
- A.Levitt, A.Lherbier, F.Liu, I.Lukacevic, A.Martin, C.Martins,
- M.J.T.Oliveira, S.Ponce, Y.Pouillon, T.Rangel, G.-M.Rignanese,
- A.H.Romero, B.Rousseau, O.Rubel, A.A.Shukri, M.Stankovski, M.Torrent,
- M.J.Van Setten, B.Van Troeye, M.J.Verstraete, D.Waroquier, J.Wiktor,
- B.Xue, A.Zhou, J.W.Zwanziger.
- Comment : the fourth generic paper describing the ABINIT project.
- Note that a version of this paper, that is not formatted for Computer Phys. Comm. 
- is available at https://www.abinit.org/about/ABINIT16.pdf .
- The licence allows the authors to put it on the Web.
-
- [2] Optimized norm-conserving Vanderbilt pseudopotentials.
- D.R. Hamann, Phys. Rev. B 88, 085117 (2013).
- Comment: Some pseudopotential generated using the ONCVPSP code were used.
-
- [3] ABINIT : First-principles approach of materials and nanosystem properties.
- Computer Phys. Comm. 180, 2582-2615 (2009).
- X. Gonze, B. Amadon, P.-M. Anglade, J.-M. Beuken, F. Bottin, P. Boulanger, F. Bruneval,
- D. Caliste, R. Caracas, M. Cote, T. Deutsch, L. Genovese, Ph. Ghosez, M. Giantomassi
- S. Goedecker, D.R. Hamann, P. Hermet, F. Jollet, G. Jomard, S. Leroux, M. Mancini, S. Mazevet,
- M.J.T. Oliveira, G. Onida, Y. Pouillon, T. Rangel, G.-M. Rignanese, D. Sangalli, R. Shaltaf,
- M. Torrent, M.J. Verstraete, G. Zerah, J.W. Zwanziger
- Comment : the third generic paper describing the ABINIT project.
- Note that a version of this paper, that is not formatted for Computer Phys. Comm. 
- is available at https://www.abinit.org/about/ABINIT_CPC_v10.pdf .
- The licence allows the authors to put it on the Web.
-
- [4] A brief introduction to the ABINIT software package.
- Z. Kristallogr. 220, 558-562 (2005).
- X. Gonze, G.-M. Rignanese, M. Verstraete, J.-M. Beuken, Y. Pouillon, R. Caracas, F. Jollet,
- M. Torrent, G. Zerah, M. Mikami, Ph. Ghosez, M. Veithen, J.-Y. Raty, V. Olevano, F. Bruneval,
- L. Reining, R. Godby, G. Onida, D.R. Hamann, and D.C. Allan.
- Comment : the second generic paper describing the ABINIT project. Note that this paper
- should be cited especially if you are using the GW part of ABINIT, as several authors
- of this part are not in the list of authors of the first or third paper.
- The .pdf of the latter paper is available at https://www.abinit.org/about/zfk_0505-06_558-562.pdf.
- Note that it should not redistributed (Copyright by Oldenburg Wissenshaftverlag,
- the licence allows the authors to put it on the Web).
-
- And optionally:
-
- [5] First-principles computation of material properties : the ABINIT software project. 
- X. Gonze, J.-M. Beuken, R. Caracas, F. Detraux, M. Fuchs, G.-M. Rignanese, L. Sindic,
- M. Verstraete, G. Zerah, F. Jollet, M. Torrent, A. Roy, M. Mikami, Ph. Ghosez, J.-Y. Raty, D.C. Allan.
- Computational Materials Science 25, 478-492 (2002). http://dx.doi.org/10.1016/S0927-0256(02)00325-7
- Comment : the original paper describing the ABINIT project.
-
- Proc.   0 individual time (sec): cpu=      12468.7  wall=      12493.7

================================================================================

 Calculation completed.
.Delivered   0 WARNINGs and   1 COMMENTs to log file.
+Overall time at end (sec) : cpu=      12468.7  wall=      12493.7
