
.Version 8.6.3 of ABINIT 
.(MPI version, prepared for a x86_64_linux_gnu4.9 computer) 

.Copyright (C) 1998-2017 ABINIT group . 
 ABINIT comes with ABSOLUTELY NO WARRANTY.
 It is free software, and you are welcome to redistribute it
 under certain conditions (GNU General Public License,
 see ~abinit/COPYING or http://www.gnu.org/copyleft/gpl.txt).

 ABINIT is a project of the Universite Catholique de Louvain,
 Corning Inc. and other collaborators, see ~abinit/doc/developers/contributors.txt .
 Please read ~abinit/doc/users/acknowledgments.html for suggested
 acknowledgments of the ABINIT effort.
 For more information, see https://www.abinit.org .

.Starting date : Sun  6 May 2018.
- ( at 16h53 )
  
- input  file    -> AI_relax.in
- output file    -> AI_relax.out
- root for input  files -> relax_xi
- root for output files -> relax_xo


 Symmetries : space group Am m 2 (# 38); Bravais oC (1-face-center ortho.)
================================================================================
 Values of the parameters that define the memory need of the present run
     intxc =       0    ionmov =       2      iscf =       7    lmnmax =       6
     lnmax =       6     mgfft =      54  mpssoang =       3    mqgrid =    3001
     natom =       6  nloc_mem =       1    nspden =       1   nspinor =       1
    nsppol =       1      nsym =       4    n1xccc =    2501    ntypat =       2
    occopt =       1   xclevel =       2
-    mband =          27        mffmem =           1         mkmem =          21
       mpw =        6456          nfft =      104976          nkpt =          21
================================================================================
P This job should need less than                      92.327 Mbytes of memory.
  Rough estimation (10% accuracy) of disk space for files :
_ WF disk file :     55.858 Mbytes ; DEN or POT disk file :      0.803 Mbytes.
================================================================================

--------------------------------------------------------------------------------
------------- Echo of variables that govern the present computation ------------
--------------------------------------------------------------------------------
-
- outvars: echo of selected default values                                      
-   iomode0 =  0 , fftalg0 =112 , wfoptalg0 =  0
-
- outvars: echo of global parameters not present in the input file              
-  max_nthreads =    0
-
 -outvars: echo values of preprocessed input variables --------
            acell      9.1100000000E+00  9.1100000000E+00  6.1037000000E+00 Bohr
              amu      1.18710000E+02  1.59994000E+01
           diemac      1.20000000E+01
          dilatmx      1.05000000E+00
             ecut      3.75000000E+01 Hartree
           ecutsm      5.00000000E-01 Hartree
-          fftalg         112
           ionmov           2
           istwfk        2    0    3    0    0    0    7    0    0    0
                         0    0    0    0    4    0    5    0    0    0
                         9
              ixc          11
              kpt      0.00000000E+00  0.00000000E+00  0.00000000E+00
                       2.50000000E-01  0.00000000E+00  0.00000000E+00
                       5.00000000E-01  0.00000000E+00  0.00000000E+00
                       2.50000000E-01  2.50000000E-01  0.00000000E+00
                       5.00000000E-01  2.50000000E-01  0.00000000E+00
                      -2.50000000E-01  2.50000000E-01  0.00000000E+00
                       5.00000000E-01  5.00000000E-01  0.00000000E+00
                       0.00000000E+00  0.00000000E+00  2.50000000E-01
                       2.50000000E-01  0.00000000E+00  2.50000000E-01
                       5.00000000E-01  0.00000000E+00  2.50000000E-01
                       2.50000000E-01  2.50000000E-01  2.50000000E-01
                       5.00000000E-01  2.50000000E-01  2.50000000E-01
                      -2.50000000E-01  2.50000000E-01  2.50000000E-01
                       5.00000000E-01  5.00000000E-01  2.50000000E-01
                       0.00000000E+00  0.00000000E+00  5.00000000E-01
                       2.50000000E-01  0.00000000E+00  5.00000000E-01
                       5.00000000E-01  0.00000000E+00  5.00000000E-01
                       2.50000000E-01  2.50000000E-01  5.00000000E-01
                       5.00000000E-01  2.50000000E-01  5.00000000E-01
                      -2.50000000E-01  2.50000000E-01  5.00000000E-01
                       5.00000000E-01  5.00000000E-01  5.00000000E-01
         kptrlatt        4    0    0      0    4    0      0    0    4
          kptrlen      2.44148000E+01
P           mkmem          21
            natom           6
            nband          27
            ngfft          54      54      36
             nkpt          21
            nstep         100
             nsym           4
            ntime         100
           ntypat           2
              occ      2.000000  2.000000  2.000000  2.000000  2.000000  2.000000
                       2.000000  2.000000  2.000000  2.000000  2.000000  2.000000
                       2.000000  2.000000  2.000000  2.000000  2.000000  2.000000
                       2.000000  2.000000  2.000000  2.000000  2.000000  2.000000
                       2.000000  2.000000  0.000000
          optcell           2
          spgroup          38
           symrel      1  0  0   0  1  0   0  0  1       1  0  0   0  1  0   0  0 -1
                       0  1  0   1  0  0   0  0  1       0  1  0   1  0  0   0  0 -1
           toldfe      5.00000000E-13 Hartree
          tolmxde      5.00000000E-11 Hartree
           tolmxf      0.00000000E+00
            typat      1  1  2  2  2  2
              wtk        0.01563    0.06250    0.03125    0.03125    0.06250    0.03125
                         0.01563    0.03125    0.12500    0.06250    0.06250    0.12500
                         0.06250    0.03125    0.01563    0.06250    0.03125    0.03125
                         0.06250    0.03125    0.01563
           xangst      0.0000000000E+00  0.0000000000E+00  0.0000000000E+00
                       2.4104021851E+00  2.4104021851E+00  1.6149694640E+00
                       3.8855683224E+00  9.3041524346E-01  1.6149694640E+00
                       9.3041524346E-01  3.8855683224E+00  1.6149694640E+00
                       1.4751661373E+00  1.4751661373E+00  0.0000000000E+00
                       3.3408174286E+00  3.3408174286E+00  0.0000000000E+00
            xcart      0.0000000000E+00  0.0000000000E+00  0.0000000000E+00
                       4.5550000000E+00  4.5550000000E+00  3.0518500000E+00
                       7.3426600000E+00  1.7582300000E+00  3.0518500000E+00
                       1.7582300000E+00  7.3426600000E+00  3.0518500000E+00
                       2.7876600000E+00  2.7876600000E+00  0.0000000000E+00
                       6.3132300000E+00  6.3132300000E+00  0.0000000000E+00
             xred      0.0000000000E+00  0.0000000000E+00  0.0000000000E+00
                       5.0000000000E-01  5.0000000000E-01  5.0000000000E-01
                       8.0600000000E-01  1.9300000000E-01  5.0000000000E-01
                       1.9300000000E-01  8.0600000000E-01  5.0000000000E-01
                       3.0600000000E-01  3.0600000000E-01  0.0000000000E+00
                       6.9300000000E-01  6.9300000000E-01  0.0000000000E+00
            znucl       50.00000    8.00000

================================================================================

 chkinp: Checking input parameters for consistency.

================================================================================
== DATASET  1 ==================================================================
-   nproc =    1

 Exchange-correlation functional for the present dataset will be:
  GGA: Perdew-Burke-Ernzerhof functional - ixc=11
 Citation for XC functional:
  J.P.Perdew, K.Burke, M.Ernzerhof, PRL 77, 3865 (1996)

 Real(R)+Recip(G) space primitive vectors, cartesian coordinates (Bohr,Bohr^-1):
 R(1)=  9.1100000  0.0000000  0.0000000  G(1)=  0.1097695  0.0000000  0.0000000
 R(2)=  0.0000000  9.1100000  0.0000000  G(2)=  0.0000000  0.1097695  0.0000000
 R(3)=  0.0000000  0.0000000  6.1037000  G(3)=  0.0000000  0.0000000  0.1638351
 Unit cell volume ucvol=  5.0655888E+02 bohr^3
 Angles (23,13,12)=  9.00000000E+01  9.00000000E+01  9.00000000E+01 degrees

 getcut: wavevector=  0.0000  0.0000  0.0000  ngfft=  54  54  36
         ecut(hartree)=     41.344   => boxcut(ratio)=   2.03770

--- Pseudopotential description ------------------------------------------------
- pspini: atom type   1  psp file is ../Pseudo_potentials/Sn_PBE.psp8
- pspatm: opening atomic psp file    ../Pseudo_potentials/Sn_PBE.psp8
- Sn    ONCVPSP-3.2.3.1  r_core=   2.27326   2.62311   1.85601
- 50.00000  14.00000    170510                znucl, zion, pspdat
    8   11    2    4       600   0.00000      pspcod,pspxc,lmax,lloc,mmax,r2well
    5.99000000000000    6.50000000000000    0.00000000000000   rchrg,fchrg,qchrg
     nproj     2     2     2
     extension_switch     1
  pspatm : epsatm=   32.65096653
         --- l  ekb(1:nproj) -->
             0    5.582184    0.748969
             1    4.193379    0.727317
             2   -5.282748   -1.526429
 pspatm: atomic psp has been read  and splines computed

- pspini: atom type   2  psp file is ../Pseudo_potentials/O_PBE.psp8
- pspatm: opening atomic psp file    ../Pseudo_potentials/O_PBE.psp8
- O     ONCVPSP-3.2.3.1  r_core=   1.35509   1.45563   1.26150
-  8.00000   6.00000    170504                znucl, zion, pspdat
    8   11    2    4       600   0.00000      pspcod,pspxc,lmax,lloc,mmax,r2well
    5.99000000000000    4.00000000000000    0.00000000000000   rchrg,fchrg,qchrg
     nproj     2     2     1
     extension_switch     1
  pspatm : epsatm=    6.19546011
         --- l  ekb(1:nproj) -->
             0    6.056735    0.824024
             1   -4.717130   -1.149271
             2   -1.331955
 pspatm: atomic psp has been read  and splines computed

   4.68435622E+03                                ecore*ucvol(ha*bohr**3)
--------------------------------------------------------------------------------

_setup2: Arith. and geom. avg. npw (full set) are    6436.547    6436.532

================================================================================

=== [ionmov= 2] Broyden-Fletcher-Goldfard-Shanno method (forces)            
================================================================================

--- Iteration: (  1/100) Internal Cycle: (1/1)
--------------------------------------------------------------------------------

---SELF-CONSISTENT-FIELD CONVERGENCE--------------------------------------------

     iter   Etot(hartree)      deltaE(h)  residm     vres2
 ETOT  1  -222.52992647497    -2.225E+02 3.029E-01 7.205E+02
