  ABINIT 8.6.3
  
  Give name for formatted input file: 
AI_relax.in
  Give name for formatted output file:
AI_relax.out
  Give root name for generic input files:
relax_xi
  Give root name for generic output files:
relax_xo
  Give root name for generic temporary files:
relax_x

--- !COMMENT
src_file: isfile.F90
src_line: 109
message: |
    Output file AI_relax.out
     already exists.
...


--- !COMMENT
src_file: isfile.F90
src_line: 133
message: |
    Renaming old AI_relax.out to AI_relax.out0006
...


.Version 8.6.3 of ABINIT 
.(MPI version, prepared for a x86_64_linux_gnu4.9 computer) 

.Copyright (C) 1998-2017 ABINIT group . 
 ABINIT comes with ABSOLUTELY NO WARRANTY.
 It is free software, and you are welcome to redistribute it
 under certain conditions (GNU General Public License,
 see ~abinit/COPYING or http://www.gnu.org/copyleft/gpl.txt).

 ABINIT is a project of the Universite Catholique de Louvain,
 Corning Inc. and other collaborators, see ~abinit/doc/developers/contributors.txt .
 Please read ~abinit/doc/users/acknowledgments.html for suggested
 acknowledgments of the ABINIT effort.
 For more information, see https://www.abinit.org .

.Starting date : Sun  6 May 2018.
- ( at 16h57 )
  

 ++++++++++++++++++++++++++++++++++++++++++++++++++++++++++++++++++++++++++++++

 === Build Information === 
  Version       : 8.6.3
  Build target  : x86_64_linux_gnu4.9
  Build date    : 20180306

 === Compiler Suite === 
  C compiler       : gnu4.9
  C++ compiler     : gnu4.9
  Fortran compiler : gnu4.9
  CFLAGS           :  -g -O2 -mtune=native -march=native
  CXXFLAGS         :  -g -O2 -mtune=native -march=native
  FCFLAGS          :  -g -ffree-line-length-none
  FC_LDFLAGS       : 

 === Optimizations === 
  Debug level        : basic
  Optimization level : standard
  Architecture       : intel_xeon

 === Multicore === 
  Parallel build : yes
  Parallel I/O   : yes
  openMP support : no
  GPU support    : no

 === Connectors / Fallbacks === 
  Connectors on : yes
  Fallbacks on  : yes
  DFT flavor    : libxc-fallback
  FFT flavor    : none
  LINALG flavor : netlib-fallback
  MATH flavor   : none
  TIMER flavor  : abinit
  TRIO flavor   : netcdf-fallback

 === Experimental features === 
  Bindings            : @enable_bindings@
  Exports             : no
  GW double-precision : yes

 ++++++++++++++++++++++++++++++++++++++++++++++++++++++++++++++++++++++++++++++


 ++++++++++++++++++++++++++++++++++++++++++++++++++++++++++++++++++++++++++++++
 Default optimizations:
   -O2 -mtune=native -march=native


 Optimizations for 20_datashare:
   -O0


 Optimizations for 43_ptgroups:
   -O0


 ++++++++++++++++++++++++++++++++++++++++++++++++++++++++++++++++++++++++++++++


 ++++++++++++++++++++++++++++++++++++++++++++++++++++++++++++++++++++++++++++++
 CPP options activated during the build:

                    CC_GNU                   CXX_GNU                    FC_GNU
 
 HAVE_FC_ALLOCATABLE_DT...             HAVE_FC_ASYNC         HAVE_FC_BACKTRACE
 
  HAVE_FC_COMMAND_ARGUMENT      HAVE_FC_COMMAND_LINE        HAVE_FC_CONTIGUOUS
 
           HAVE_FC_CPUTIME              HAVE_FC_EXIT             HAVE_FC_FLUSH
 
             HAVE_FC_GAMMA            HAVE_FC_GETENV          HAVE_FC_INT_QUAD
 
             HAVE_FC_IOMSG     HAVE_FC_ISO_C_BINDING  HAVE_FC_ISO_FORTRAN_2008
 
        HAVE_FC_LONG_LINES        HAVE_FC_MOVE_ALLOC           HAVE_FC_PRIVATE
 
         HAVE_FC_PROTECTED         HAVE_FC_STREAM_IO            HAVE_FC_SYSTEM
 
          HAVE_FORTRAN2003               HAVE_GW_DPC        HAVE_LIBPAW_ABINIT
 
      HAVE_LIBTETRA_ABINIT                HAVE_LIBXC                  HAVE_MPI
 
                 HAVE_MPI2       HAVE_MPI_IALLREDUCE        HAVE_MPI_IALLTOALL
 
       HAVE_MPI_IALLTOALLV        HAVE_MPI_INTEGER16               HAVE_MPI_IO
 
 HAVE_MPI_TYPE_CREATE_S...               HAVE_NETCDF             HAVE_OS_LINUX
 
         HAVE_TIMER_ABINIT              USE_MACROAVE                            
 ++++++++++++++++++++++++++++++++++++++++++++++++++++++++++++++++++++++++++++++

- input  file    -> AI_relax.in
- output file    -> AI_relax.out
- root for input  files -> relax_xi
- root for output files -> relax_xo

-instrng: 45 lines of input have been read from file AI_relax.in


 Please give name of formatted atomic psp file
 iofn2 : for atom type 1, psp file is ../Pseudo_potentials/Sn_PBE.psp8

 Please give name of formatted atomic psp file
 iofn2 : for atom type 2, psp file is ../Pseudo_potentials/O_PBE.psp8
  read the values zionpsp= 14.0 , pspcod=   8 , lmax=   2
  read the values zionpsp=  6.0 , pspcod=   8 , lmax=   2

 inpspheads: deduce mpsang = 3, n1xccc = 2501.
 invars1 : treat image number: 1

 symlatt : the Bravais lattice is tP (primitive tetragonal)
  xred   is defined in input file
 ingeo : takes atomic coordinates from input array xred
 symfind : exit, nsym=4
   symrel matrices, symafm and tnons are :
   1       1   0   0     0   1   0     0   0   1       1      0.0000  0.0000  0.0000
   2       1   0   0     0   1   0     0   0  -1       1      0.0000  0.0000  0.0000
   3       0   1   0     1   0   0     0   0   1       1      0.0000  0.0000  0.0000
   4       0   1   0     1   0   0     0   0  -1       1      0.0000  0.0000  0.0000

 symlatt : the Bravais lattice is tP (primitive tetragonal)

 symlatt : the Bravais lattice is tP (primitive tetragonal)

--- !COMMENT
src_file: symbrav.F90
src_line: 201
message: |
    The Bravais lattice determined only from the primitive
    vectors, bravais(1)=  4, is more symmetric
    than the real one, iholohedry=  3, obtained by taking into
    account the atomic positions. Start deforming the primitive vector set.
...


 symlatt : the Bravais lattice is oC (one-face-centered orthorhombic)
 symspgr : spgroup=  38  Am m 2   (=C2v^14)
 ingeo : angdeg(1:3)=   90.00000000   90.00000000   90.00000000
 invars2: take the default value of fband=  1.25000000E-01
 chkneu : initialized the occupation numbers for occopt=    1, spin-unpolarized or antiferromagnetic case :
  2.00  2.00  2.00  2.00  2.00  2.00  2.00  2.00  2.00  2.00  2.00  2.00
  2.00  2.00  2.00  2.00  2.00  2.00  2.00  2.00  2.00  2.00  2.00  2.00
  2.00  2.00  0.00
mpi_setup: mkmem  undefined in the input file.Use default mkmem  = nkpt
 mpi_setup: With nkpt_me=21 and mkmem  = 21, ground state wf handled in core.
mpi_setup: mkqmem undefined in the input file.Use default mkqmem = nkpt
 mpi_setup: With nkpt_me=21 and mkqmem = 21, ground state wf handled in core.
mpi_setup: mk1mem undefined in the input file.Use default mk1mem = nkpt
 mpi_setup: With nkpt_me=21 and mk1mem = 21, ground state wf handled in core.
 For input ecut=  4.134375E+01 best grid ngfft=      54      54      36
       max ecut=  4.291691E+01

 ==== FFT mesh ====
  FFT mesh divisions ........................    54   54   36
  Augmented FFT divisions ...................    55   55   36
  FFT algorithm .............................   112
  FFT cache size ............................    16
 getmpw: optimal value of mpw= 6456

 Symmetries : space group Am m 2 (# 38); Bravais oC (1-face-center ortho.)

 getdim_nloc : deduce lmnmax  =  18, lnmax  =   6,
                      lmnmaxso=  18, lnmaxso=   6.
memory : analysis of memory needs
================================================================================
 Values of the parameters that define the memory need of the present run
     intxc =       0    ionmov =       2      iscf =       7    lmnmax =       6
     lnmax =       6     mgfft =      54  mpssoang =       3    mqgrid =    3001
     natom =       6  nloc_mem =       1    nspden =       1   nspinor =       1
    nsppol =       1      nsym =       4    n1xccc =    2501    ntypat =       2
    occopt =       1   xclevel =       2
-    mband =          27        mffmem =           1         mkmem =          21
       mpw =        6456          nfft =      104976          nkpt =          21
================================================================================
P This job should need less than                      92.327 Mbytes of memory.
  Rough estimation (10% accuracy) of disk space for files :
_ WF disk file :     55.858 Mbytes ; DEN or POT disk file :      0.803 Mbytes.
================================================================================

 Biggest array : cg(disk), with     55.8576 MBytes.
 memana : allocated an array of     55.858 Mbytes, for testing purposes.
 memana: allocated      92.327Mbytes, for testing purposes. 
 The job will continue.
--------------------------------------------------------------------------------
------------- Echo of variables that govern the present computation ------------
--------------------------------------------------------------------------------
-
- outvars: echo of selected default values                                      
-   iomode0 =  0 , fftalg0 =112 , wfoptalg0 =  0
-
- outvars: echo of global parameters not present in the input file              
-  max_nthreads =    0
-
 -outvars: echo values of preprocessed input variables --------
 
 These variables are accessible in NetCDF format (relax_xo_OUT.nc)

            acell      9.1100000000E+00  9.1100000000E+00  6.1037000000E+00 Bohr
              amu      1.18710000E+02  1.59994000E+01
           diemac      1.20000000E+01
          dilatmx      1.05000000E+00
             ecut      3.75000000E+01 Hartree
           ecutsm      5.00000000E-01 Hartree
-          fftalg         112
           ionmov           2
           istwfk        2    0    3    0    0    0    7    0    0    0
                         0    0    0    0    4    0    5    0    0    0
                         9
              ixc          11
              kpt      0.00000000E+00  0.00000000E+00  0.00000000E+00
                       2.50000000E-01  0.00000000E+00  0.00000000E+00
                       5.00000000E-01  0.00000000E+00  0.00000000E+00
                       2.50000000E-01  2.50000000E-01  0.00000000E+00
                       5.00000000E-01  2.50000000E-01  0.00000000E+00
                      -2.50000000E-01  2.50000000E-01  0.00000000E+00
                       5.00000000E-01  5.00000000E-01  0.00000000E+00
                       0.00000000E+00  0.00000000E+00  2.50000000E-01
                       2.50000000E-01  0.00000000E+00  2.50000000E-01
                       5.00000000E-01  0.00000000E+00  2.50000000E-01
                       2.50000000E-01  2.50000000E-01  2.50000000E-01
                       5.00000000E-01  2.50000000E-01  2.50000000E-01
                      -2.50000000E-01  2.50000000E-01  2.50000000E-01
                       5.00000000E-01  5.00000000E-01  2.50000000E-01
                       0.00000000E+00  0.00000000E+00  5.00000000E-01
                       2.50000000E-01  0.00000000E+00  5.00000000E-01
                       5.00000000E-01  0.00000000E+00  5.00000000E-01
                       2.50000000E-01  2.50000000E-01  5.00000000E-01
                       5.00000000E-01  2.50000000E-01  5.00000000E-01
                      -2.50000000E-01  2.50000000E-01  5.00000000E-01
                       5.00000000E-01  5.00000000E-01  5.00000000E-01
         kptrlatt        4    0    0      0    4    0      0    0    4
          kptrlen      2.44148000E+01
P           mkmem          21
            natom           6
            nband          27
            ngfft          54      54      36
             nkpt          21
            nstep         100
             nsym           4
            ntime         100
           ntypat           2
              occ      2.000000  2.000000  2.000000  2.000000  2.000000  2.000000
                       2.000000  2.000000  2.000000  2.000000  2.000000  2.000000
                       2.000000  2.000000  2.000000  2.000000  2.000000  2.000000
                       2.000000  2.000000  2.000000  2.000000  2.000000  2.000000
                       2.000000  2.000000  0.000000
          optcell           2
          spgroup          38
           symrel      1  0  0   0  1  0   0  0  1       1  0  0   0  1  0   0  0 -1
                       0  1  0   1  0  0   0  0  1       0  1  0   1  0  0   0  0 -1
           toldfe      5.00000000E-13 Hartree
           tolmxf      5.00000000E-10
            typat      1  1  2  2  2  2
              wtk        0.01563    0.06250    0.03125    0.03125    0.06250    0.03125
                         0.01563    0.03125    0.12500    0.06250    0.06250    0.12500
                         0.06250    0.03125    0.01563    0.06250    0.03125    0.03125
                         0.06250    0.03125    0.01563
           xangst      0.0000000000E+00  0.0000000000E+00  0.0000000000E+00
                       2.4104021851E+00  2.4104021851E+00  1.6149694640E+00
                       3.8855683224E+00  9.3041524346E-01  1.6149694640E+00
                       9.3041524346E-01  3.8855683224E+00  1.6149694640E+00
                       1.4751661373E+00  1.4751661373E+00  0.0000000000E+00
                       3.3408174286E+00  3.3408174286E+00  0.0000000000E+00
            xcart      0.0000000000E+00  0.0000000000E+00  0.0000000000E+00
                       4.5550000000E+00  4.5550000000E+00  3.0518500000E+00
                       7.3426600000E+00  1.7582300000E+00  3.0518500000E+00
                       1.7582300000E+00  7.3426600000E+00  3.0518500000E+00
                       2.7876600000E+00  2.7876600000E+00  0.0000000000E+00
                       6.3132300000E+00  6.3132300000E+00  0.0000000000E+00
             xred      0.0000000000E+00  0.0000000000E+00  0.0000000000E+00
                       5.0000000000E-01  5.0000000000E-01  5.0000000000E-01
                       8.0600000000E-01  1.9300000000E-01  5.0000000000E-01
                       1.9300000000E-01  8.0600000000E-01  5.0000000000E-01
                       3.0600000000E-01  3.0600000000E-01  0.0000000000E+00
                       6.9300000000E-01  6.9300000000E-01  0.0000000000E+00
            znucl       50.00000    8.00000

================================================================================

 chkinp: Checking input parameters for consistency.
 DATA TYPE INFORMATION: 
 REAL:      Data type name: REAL(DP) 
            Kind value:      8
            Precision:      15
            Smallest nonnegligible quantity relative to 1:  0.22204460E-15
            Smallest positive number:                       0.22250739-307
            Largest representable number:                   0.17976931+309
 INTEGER:   Data type name: INTEGER(default) 
            Kind value: 4
            Bit size:   32
            Largest representable number: 2147483647
 LOGICAL:   Data type name: LOGICAL 
            Kind value: 4
 CHARACTER: Data type name: CHARACTER             Kind value: 1

  ==== OpenMP parallelism is OFF ====
 
  ==== Using MPI-2 specifications ==== 
  MPI-IO support is ON
  xmpi_tag_ub ................   2147483647
  xmpi_bsize_ch ..............            1
  xmpi_bsize_int .............            4
  xmpi_bsize_sp ..............            4
  xmpi_bsize_dp ..............            8
  xmpi_bsize_spc .............            8
  xmpi_bsize_dpc .............           16
  xmpio_bsize_frm ............            4
  xmpi_address_kind ..........            8
  xmpi_offset_kind ...........            8
  MPI_WTICK ..................    9.9999999999999995E-007

================================================================================
== DATASET  1 ==================================================================
-   nproc =    1


 getdim_nloc : deduce lmnmax  =  18, lnmax  =   6,
                      lmnmaxso=  18, lnmaxso=   6.
 Exchange-correlation functional for the present dataset will be:
  GGA: Perdew-Burke-Ernzerhof functional - ixc=11
 Citation for XC functional:
  J.P.Perdew, K.Burke, M.Ernzerhof, PRL 77, 3865 (1996)

 Unit cell volume ucvol=  5.0655888E+02 bohr^3
 Angles (23,13,12)=  9.00000000E+01  9.00000000E+01  9.00000000E+01 degrees

 getcut: wavevector=  0.0000  0.0000  0.0000  ngfft=  54  54  36
         ecut(hartree)=     41.344   => boxcut(ratio)=   2.03770
- pspini: atom type   1  psp file is ../Pseudo_potentials/Sn_PBE.psp8
- pspatm: opening atomic psp file    ../Pseudo_potentials/Sn_PBE.psp8
- Sn    ONCVPSP-3.2.3.1  r_core=   2.27326   2.62311   1.85601
- 50.00000  14.00000    170510                znucl, zion, pspdat
    8   11    2    4       600   0.00000      pspcod,pspxc,lmax,lloc,mmax,r2well
    5.99000000000000    6.50000000000000    0.00000000000000   rchrg,fchrg,qchrg
     nproj     2     2     2
     extension_switch     1
 valence charge integrates to:    13.912521264302672     
  pspatm : epsatm=   32.65096653
         --- l  ekb(1:nproj) -->
             0    5.582184    0.748969
             1    4.193379    0.727317
             2   -5.282748   -1.526429
 pspatm: atomic psp has been read  and splines computed

- pspini: atom type   2  psp file is ../Pseudo_potentials/O_PBE.psp8
- pspatm: opening atomic psp file    ../Pseudo_potentials/O_PBE.psp8
- O     ONCVPSP-3.2.3.1  r_core=   1.35509   1.45563   1.26150
-  8.00000   6.00000    170504                znucl, zion, pspdat
    8   11    2    4       600   0.00000      pspcod,pspxc,lmax,lloc,mmax,r2well
    5.99000000000000    4.00000000000000    0.00000000000000   rchrg,fchrg,qchrg
     nproj     2     2     1
     extension_switch     1
 valence charge integrates to:    5.9990318752405338     
  pspatm : epsatm=    6.19546011
         --- l  ekb(1:nproj) -->
             0    6.056735    0.824024
             1   -4.717130   -1.149271
             2   -1.331955
 pspatm: atomic psp has been read  and splines computed

   4.68435622E+03                                ecore*ucvol(ha*bohr**3)
 ==== Info on pseudopotentials ====
  Norm-conserving pseudopotentials
  Number of pseudopotentials ..    2
  Number of types of atoms   ..    2
  Scalar calculation (no spin-orbit term)
  Nonlocal part applied using Legendre polynomials
  Max number of non-local projectors over l and type   2
  Highest angular momentum +1 .......   3
  Max number of (l,n)   components ..   6
  Max number of (l,m,n) components ..   6

 Pseudo-Core Charge Info: 
   Number of radial points for pseudo-core charge .. 2501
   XC core-correction treatment (optnlxccc) ........    1
   Radius for pseudo-core charge for each type ..... 

  - Atom type    1 has pseudo-core radius ..  5.9900
  - Atom type    2 has pseudo-core radius ..  5.9900

 Info on the Q-grid used for form factors in spline form: 
   Number of q-points for radial functions ffspl ..   3001
   Number of q-points for vlspl ...................   3001
   vloc is computed in Reciprocal Space
   model core charge treated in real-space

  XC functional for type 1 is 11
  Pseudo valence available: yes
  XC functional for type 2 is 11
  Pseudo valence available: yes

 wfconv:    27 bands initialized randomly with npw=  3225, for ikpt=     1
 wfconv:    27 bands initialized randomly with npw=  6414, for ikpt=     2
 wfconv:    27 bands initialized randomly with npw=  3211, for ikpt=     3
 wfconv:    27 bands initialized randomly with npw=  6431, for ikpt=     4
 wfconv:    27 bands initialized randomly with npw=  6448, for ikpt=     5
 wfconv:    27 bands initialized randomly with npw=  6431, for ikpt=     6
 wfconv:    27 bands initialized randomly with npw=  3230, for ikpt=     7
 wfconv:    27 bands initialized randomly with npw=  6434, for ikpt=     8
 wfconv:    27 bands initialized randomly with npw=  6436, for ikpt=     9
 wfconv:    27 bands initialized randomly with npw=  6446, for ikpt=    10
 wfconv:    27 bands initialized randomly with npw=  6428, for ikpt=    11
 wfconv:    27 bands initialized randomly with npw=  6428, for ikpt=    12
 wfconv:    27 bands initialized randomly with npw=  6428, for ikpt=    13
 wfconv:    27 bands initialized randomly with npw=  6436, for ikpt=    14
 wfconv:    27 bands initialized randomly with npw=  3201, for ikpt=    15
 wfconv:    27 bands initialized randomly with npw=  6428, for ikpt=    16
 wfconv:    27 bands initialized randomly with npw=  3232, for ikpt=    17
 wfconv:    27 bands initialized randomly with npw=  6454, for ikpt=    18
 wfconv:    27 bands initialized randomly with npw=  6456, for ikpt=    19
 wfconv:    27 bands initialized randomly with npw=  6454, for ikpt=    20
 wfconv:    27 bands initialized randomly with npw=  3236, for ikpt=    21
_setup2: Arith. and geom. avg. npw (full set) are    6436.547    6436.532
 initro: for itypat=  1, take pseudo charge density from pp file
 initro: for itypat=  2, take pseudo charge density from pp file

================================================================================

=== [ionmov= 2] Broyden-Fletcher-Goldfard-Shanno method (forces)            
================================================================================

--- Iteration: (  1/100) Internal Cycle: (1/1)
--------------------------------------------------------------------------------

 Cartesian coordinates (xcart) [bohr]
  0.00000000000000E+00  0.00000000000000E+00  0.00000000000000E+00
  4.55500000000000E+00  4.55500000000000E+00  3.05185000000000E+00
  7.34266000000000E+00  1.75823000000000E+00  3.05185000000000E+00
  1.75823000000000E+00  7.34266000000000E+00  3.05185000000000E+00
  2.78766000000000E+00  2.78766000000000E+00  0.00000000000000E+00
  6.31323000000000E+00  6.31323000000000E+00  0.00000000000000E+00
 Reduced coordinates (xred)
  0.00000000000000E+00  0.00000000000000E+00  0.00000000000000E+00
  5.00000000000000E-01  5.00000000000000E-01  5.00000000000000E-01
  8.06000000000000E-01  1.93000000000000E-01  5.00000000000000E-01
  1.93000000000000E-01  8.06000000000000E-01  5.00000000000000E-01
  3.06000000000000E-01  3.06000000000000E-01  0.00000000000000E+00
  6.93000000000000E-01  6.93000000000000E-01  0.00000000000000E+00
 Scale of Primitive Cell (acell) [bohr]
  9.11000000000000E+00  9.11000000000000E+00  6.10370000000000E+00
 Real space primitive translations (rprimd) [bohr]
  9.11000000000000E+00  0.00000000000000E+00  0.00000000000000E+00
  0.00000000000000E+00  9.11000000000000E+00  0.00000000000000E+00
  0.00000000000000E+00  0.00000000000000E+00  6.10370000000000E+00
 Unitary Cell Volume (ucvol) [Bohr^3]=  5.06558880770000E+02
 Angles (23,13,12)= [degrees]
  9.00000000000000E+01  9.00000000000000E+01  9.00000000000000E+01
 Lengths [Bohr]
  9.11000000000000E+00  9.11000000000000E+00  6.10370000000000E+00

---SELF-CONSISTENT-FIELD CONVERGENCE--------------------------------------------

 getcut: wavevector=  0.0000  0.0000  0.0000  ngfft=  54  54  36
         ecut(hartree)=     37.500   => boxcut(ratio)=   2.13958

 ITER STEP NUMBER     1
 vtorho : nnsclo_now=2, note that nnsclo,dbl_nnsclo,istep=0 0 1
 Total charge density [el/Bohr^3]
      Maximum=    1.2851E+00  at reduced coord.    0.0185    0.0370    0.8889
      Minimum=    9.1292E-04  at reduced coord.    0.5000    0.5000    0.5000
   Integrated=    5.2000E+01
 ETOT  1  -222.52992647497    -2.225E+02 3.029E-01 7.205E+02
 scprqt: <Vxc>= -4.0739484E-01 hartree

Simple mixing update:
  residual square of the potential :   366.88641676698933
 scfcv: previous iteration took 41 [s]

 ITER STEP NUMBER     2
 vtorho : nnsclo_now=2, note that nnsclo,dbl_nnsclo,istep=0 0 2
 Total charge density [el/Bohr^3]
      Maximum=    1.2795E+00  at reduced coord.    0.0370    0.9444    0.9167
      Minimum=    1.2774E-04  at reduced coord.    0.5000    0.5000    0.5000
   Integrated=    5.2000E+01
 ETOT  2  -223.62699745180    -1.097E+00 7.887E-02 4.954E+02
 scprqt: <Vxc>= -4.2123001E-01 hartree

 Pulay update with  1 previous iterations:
 mixing of old trial potential : alpha(m:m-4)=  0.554      0.446
 scfcv: previous iteration took 41 [s]

 ITER STEP NUMBER     3
 vtorho : nnsclo_now=1, note that nnsclo,dbl_nnsclo,istep=0 0 3
 Total charge density [el/Bohr^3]
      Maximum=    1.2747E+00  at reduced coord.    0.0370    0.9444    0.9167
      Minimum=    8.8958E-05  at reduced coord.    0.5000    0.5000    0.5000
   Integrated=    5.2000E+01
 ETOT  3  -223.77838175914    -1.514E-01 8.325E-03 5.699E+01
 scprqt: <Vxc>= -4.0949042E-01 hartree

 Pulay update with  2 previous iterations:
 mixing of old trial potential : alpha(m:m-4)=  0.596      0.297      0.106
 scfcv: previous iteration took 21 [s]

 ITER STEP NUMBER     4
 vtorho : nnsclo_now=1, note that nnsclo,dbl_nnsclo,istep=0 0 4
 Total charge density [el/Bohr^3]
      Maximum=    1.2785E+00  at reduced coord.    0.4444    0.4630    0.5833
      Minimum=    1.1015E-04  at reduced coord.    0.0000    0.0000    0.0000
   Integrated=    5.2000E+01
 ETOT  4  -223.79219209084    -1.381E-02 8.907E-03 4.375E+00
 scprqt: <Vxc>= -4.1075368E-01 hartree

 Pulay update with  3 previous iterations:
 mixing of old trial potential : alpha(m:m-4)=   1.22      0.153E-01 -0.914E-01 -0.144
 scfcv: previous iteration took 21 [s]

 ITER STEP NUMBER     5
 vtorho : nnsclo_now=1, note that nnsclo,dbl_nnsclo,istep=0 0 5
 Total charge density [el/Bohr^3]
      Maximum=    1.2803E+00  at reduced coord.    0.4444    0.4630    0.5833
      Minimum=    1.1410E-04  at reduced coord.    0.5000    0.5000    0.5000
   Integrated=    5.2000E+01
 ETOT  5  -223.79177526342     4.168E-04 1.109E-03 5.596E+00
 scprqt: <Vxc>= -4.1208393E-01 hartree

 Pulay update with  4 previous iterations:
 mixing of old trial potential : alpha(m:m-4)=  0.529      0.503     -0.421E-01 -0.311E-02  0.131E-01
 scfcv: previous iteration took 21 [s]

 ITER STEP NUMBER     6
 vtorho : nnsclo_now=1, note that nnsclo,dbl_nnsclo,istep=0 0 6
 Total charge density [el/Bohr^3]
      Maximum=    1.2781E+00  at reduced coord.    0.0370    0.9444    0.9167
      Minimum=    1.0821E-04  at reduced coord.    0.5000    0.5000    0.5000
   Integrated=    5.2000E+01
 ETOT  6  -223.79326103634    -1.486E-03 6.713E-04 8.151E-02
 scprqt: <Vxc>= -4.1128941E-01 hartree

 Pulay update with  5 previous iterations:
 mixing of old trial potential : alpha(m:m-4)=  0.985      0.707E-01 -0.223E-01 -0.226E-01 -0.969E-02
 scfcv: previous iteration took 21 [s]

 ITER STEP NUMBER     7
 vtorho : nnsclo_now=1, note that nnsclo,dbl_nnsclo,istep=0 0 7
 Total charge density [el/Bohr^3]
      Maximum=    1.2787E+00  at reduced coord.    0.4444    0.4630    0.5833
      Minimum=    1.1038E-04  at reduced coord.    0.0000    0.0000    0.0000
   Integrated=    5.2000E+01
 ETOT  7  -223.79327386409    -1.283E-05 4.737E-04 5.853E-03
 scprqt: <Vxc>= -4.1130016E-01 hartree

 Pulay update with  6 previous iterations:
 mixing of old trial potential : alpha(m:m-4)=  0.875      0.166     -0.792E-02 -0.345E-01  0.308E-02
 scfcv: previous iteration took 20 [s]

 ITER STEP NUMBER     8
 vtorho : nnsclo_now=1, note that nnsclo,dbl_nnsclo,istep=0 0 8
 Total charge density [el/Bohr^3]
      Maximum=    1.2786E+00  at reduced coord.    0.4444    0.4630    0.5833
      Minimum=    1.1017E-04  at reduced coord.    0.0000    0.0000    0.0000
   Integrated=    5.2000E+01
 ETOT  8  -223.79327456490    -7.008E-07 3.438E-04 1.941E-03
 scprqt: <Vxc>= -4.1128797E-01 hartree

 Pulay update with  7 previous iterations:
 mixing of old trial potential : alpha(m:m-4)=  0.593      0.416      0.926E-02 -0.466E-02 -0.177E-01
 scfcv: previous iteration took 21 [s]

 ITER STEP NUMBER     9
 vtorho : nnsclo_now=1, note that nnsclo,dbl_nnsclo,istep=0 0 9
 Total charge density [el/Bohr^3]
      Maximum=    1.2786E+00  at reduced coord.    0.4444    0.4630    0.5833
      Minimum=    1.1014E-04  at reduced coord.    0.5000    0.5000    0.5000
   Integrated=    5.2000E+01
 ETOT  9  -223.79327486241    -2.975E-07 2.367E-04 3.418E-04
 scprqt: <Vxc>= -4.1128401E-01 hartree

 Pulay update with  7 previous iterations:
 mixing of old trial potential : alpha(m:m-4)=  0.852      0.268     -0.962E-01 -0.305E-01  0.387E-02
 scfcv: previous iteration took 21 [s]

 ITER STEP NUMBER    10
 vtorho : nnsclo_now=1, note that nnsclo,dbl_nnsclo,istep=0 0 10
 Total charge density [el/Bohr^3]
      Maximum=    1.2786E+00  at reduced coord.    0.4444    0.4630    0.5833
      Minimum=    1.1016E-04  at reduced coord.    0.5000    0.5000    0.5000
   Integrated=    5.2000E+01
 ETOT 10  -223.79327492761    -6.521E-08 1.693E-04 8.436E-06
 scprqt: <Vxc>= -4.1128389E-01 hartree

 Pulay update with  7 previous iterations:
 mixing of old trial potential : alpha(m:m-4)=  0.775      0.205      0.490E-01 -0.239E-01 -0.572E-02
 scfcv: previous iteration took 21 [s]

 ITER STEP NUMBER    11
 vtorho : nnsclo_now=1, note that nnsclo,dbl_nnsclo,istep=0 0 11
 Total charge density [el/Bohr^3]
      Maximum=    1.2786E+00  at reduced coord.    0.4444    0.4630    0.5833
      Minimum=    1.1016E-04  at reduced coord.    0.5000    0.5000    0.5000
   Integrated=    5.2000E+01
 ETOT 11  -223.79327492906    -1.442E-09 1.145E-04 1.459E-06
 scprqt: <Vxc>= -4.1128372E-01 hartree

 Pulay update with  7 previous iterations:
 mixing of old trial potential : alpha(m:m-4)=  0.958      0.130E-01  0.821E-02  0.148E-01  0.668E-02
 scfcv: previous iteration took 21 [s]

 ITER STEP NUMBER    12
 vtorho : nnsclo_now=1, note that nnsclo,dbl_nnsclo,istep=0 0 12
 Total charge density [el/Bohr^3]
      Maximum=    1.2786E+00  at reduced coord.    0.4444    0.4630    0.5833
      Minimum=    1.1016E-04  at reduced coord.    0.5000    0.5000    0.5000
   Integrated=    5.2000E+01
 ETOT 12  -223.79327492929    -2.341E-10 7.961E-05 1.011E-07
 scprqt: <Vxc>= -4.1128386E-01 hartree

 Pulay update with  7 previous iterations:
 mixing of old trial potential : alpha(m:m-4)=   1.04      0.111     -0.116     -0.254E-01 -0.843E-02
 scfcv: previous iteration took 21 [s]

 ITER STEP NUMBER    13
 vtorho : nnsclo_now=1, note that nnsclo,dbl_nnsclo,istep=0 0 13
 Total charge density [el/Bohr^3]
      Maximum=    1.2786E+00  at reduced coord.    0.4444    0.4630    0.5833
      Minimum=    1.1016E-04  at reduced coord.    0.5000    0.5000    0.5000
   Integrated=    5.2000E+01
 ETOT 13  -223.79327492931    -2.200E-11 5.381E-05 4.801E-09
 scprqt: <Vxc>= -4.1128380E-01 hartree

 Pulay update with  7 previous iterations:
 mixing of old trial potential : alpha(m:m-4)=  0.850      0.146      0.238E-01 -0.134E-01 -0.462E-02
 scfcv: previous iteration took 21 [s]

 ITER STEP NUMBER    14
 vtorho : nnsclo_now=1, note that nnsclo,dbl_nnsclo,istep=0 0 14
 Total charge density [el/Bohr^3]
      Maximum=    1.2786E+00  at reduced coord.    0.4444    0.4630    0.5833
      Minimum=    1.1016E-04  at reduced coord.    0.5000    0.5000    0.5000
   Integrated=    5.2000E+01
 ETOT 14  -223.79327492931    -9.095E-13 3.653E-05 2.899E-10
 scprqt: <Vxc>= -4.1128381E-01 hartree

 Pulay update with  7 previous iterations:
 mixing of old trial potential : alpha(m:m-4)=  0.974      0.740E-01 -0.536E-01 -0.171E-02  0.645E-02
 scfcv: previous iteration took 21 [s]

 ITER STEP NUMBER    15
 vtorho : nnsclo_now=1, note that nnsclo,dbl_nnsclo,istep=0 0 15
 Total charge density [el/Bohr^3]
      Maximum=    1.2786E+00  at reduced coord.    0.4444    0.4630    0.5833
      Minimum=    1.1016E-04  at reduced coord.    0.5000    0.5000    0.5000
   Integrated=    5.2000E+01
 ETOT 15  -223.79327492931     2.842E-14 2.493E-05 8.791E-12
 scprqt: <Vxc>= -4.1128380E-01 hartree

 Pulay update with  7 previous iterations:
 mixing of old trial potential : alpha(m:m-4)=  0.752      0.291     -0.396E-01 -0.330E-02 -0.630E-03
 scfcv: previous iteration took 21 [s]

 ITER STEP NUMBER    16
 vtorho : nnsclo_now=1, note that nnsclo,dbl_nnsclo,istep=0 0 16
 Total charge density [el/Bohr^3]
      Maximum=    1.2786E+00  at reduced coord.    0.4444    0.4630    0.5833
      Minimum=    1.1016E-04  at reduced coord.    0.5000    0.5000    0.5000
   Integrated=    5.2000E+01
 ETOT 16  -223.79327492931     3.126E-13 1.660E-05 2.291E-12
 scprqt: <Vxc>= -4.1128380E-01 hartree

 At SCF step   16, etot is converged : 
  for the second time, diff in etot=  3.126E-13 < toldfe=  5.000E-13

 Cartesian components of stress tensor (hartree/bohr^3)
  sigma(1 1)= -5.79891468E-05  sigma(3 2)=  0.00000000E+00
  sigma(2 2)= -5.79891468E-05  sigma(3 1)=  0.00000000E+00
  sigma(3 3)= -1.00042308E-04  sigma(2 1)= -5.54091846E-08

 fftdatar_write: About to write data to: relax_xo_TIM1_DEN with iomode IO_MODE_FORTRAN
 IO operation completed. cpu_time:       0.0 [s], walltime:       0.0 [s]
 Write iteration in HIST netCDF file

---OUTPUT-----------------------------------------------------------------------

 Cartesian coordinates (xcart) [bohr]
  0.00000000000000E+00  0.00000000000000E+00  0.00000000000000E+00
  4.55500000000000E+00  4.55500000000000E+00  3.05185000000000E+00
  7.34266000000000E+00  1.75823000000000E+00  3.05185000000000E+00
  1.75823000000000E+00  7.34266000000000E+00  3.05185000000000E+00
  2.78766000000000E+00  2.78766000000000E+00  0.00000000000000E+00
  6.31323000000000E+00  6.31323000000000E+00  0.00000000000000E+00
 Reduced coordinates (xred)
  0.00000000000000E+00  0.00000000000000E+00  0.00000000000000E+00
  5.00000000000000E-01  5.00000000000000E-01  5.00000000000000E-01
  8.06000000000000E-01  1.93000000000000E-01  5.00000000000000E-01
  1.93000000000000E-01  8.06000000000000E-01  5.00000000000000E-01
  3.06000000000000E-01  3.06000000000000E-01  0.00000000000000E+00
  6.93000000000000E-01  6.93000000000000E-01  0.00000000000000E+00
 Cartesian forces (fcart) [Ha/bohr]; max,rms= 8.33627E-04 4.32690E-04 (free atoms)
 -5.29448636840315E-04 -5.29448636840315E-04 -0.00000000000000E+00
 -6.76097704341658E-04 -6.76097704341658E-04 -0.00000000000000E+00
 -2.33436094379035E-04  2.16333197121186E-04 -0.00000000000000E+00
  2.16333197121186E-04 -2.33436094379035E-04 -0.00000000000000E+00
  3.89022189757926E-04  3.89022189757926E-04 -0.00000000000000E+00
  8.33627048681896E-04  8.33627048681896E-04 -0.00000000000000E+00
 Reduced forces (fred)
  4.82327708161527E-03  4.82327708161527E-03  0.00000000000000E+00
  6.15925008655251E-03  6.15925008655251E-03  0.00000000000000E+00
  2.12660281979301E-03 -1.97079542577400E-03 -0.00000000000000E+00
 -1.97079542577400E-03  2.12660281979301E-03 -0.00000000000000E+00
 -3.54399214869471E-03 -3.54399214869471E-03 -0.00000000000000E+00
 -7.59434241349207E-03 -7.59434241349207E-03 -0.00000000000000E+00
 Scale of Primitive Cell (acell) [bohr]
  9.11000000000000E+00  9.11000000000000E+00  6.10370000000000E+00
 Real space primitive translations (rprimd) [bohr]
  9.11000000000000E+00  0.00000000000000E+00  0.00000000000000E+00
  0.00000000000000E+00  9.11000000000000E+00  0.00000000000000E+00
  0.00000000000000E+00  0.00000000000000E+00  6.10370000000000E+00
 Unitary Cell Volume (ucvol) [Bohr^3]=  5.06558880770000E+02
 Angles (23,13,12)= [degrees]
  9.00000000000000E+01  9.00000000000000E+01  9.00000000000000E+01
 Lengths [Bohr]
  9.11000000000000E+00  9.11000000000000E+00  6.10370000000000E+00
 Stress tensor in cartesian coordinates (strten) [Ha/bohr^3]
 -5.79891468028941E-05 -5.54091845547864E-08  0.00000000000000E+00
 -5.54091845547864E-08 -5.79891468028941E-05  0.00000000000000E+00
  0.00000000000000E+00  0.00000000000000E+00 -1.00042308307197E-04
 Total energy (etotal) [Ha]= -2.23793274929312E+02
 fconv : at Broyd/MD step   1, gradients have not converged yet. 
  max grad (force/stress) = 1.0004E-02 > tolmxf= 5.0000E-10 ha/bohr (free atoms)

 Geometry Optimization Precondition:           0
Inverse hessian has been initialized.
 EXIT:           1           1
 mover: previous time step took 06:23

--- Iteration: (  2/100) Internal Cycle: (1/1)
--------------------------------------------------------------------------------

 Cartesian coordinates (xcart) [bohr]
 -5.30371465261139E-04 -5.30371465261139E-04  0.00000000000000E+00
  4.56226208409882E+00  4.56226208409882E+00  3.06100942355822E+00
  7.35520584150738E+00  1.76152986754606E+00  3.06100942355822E+00
  1.76152986754606E+00  7.35520584150738E+00  3.06100942355822E+00
  2.79290858872237E+00  2.79290858872237E+00  0.00000000000000E+00
  6.32506903335344E+00  6.32506903335344E+00  0.00000000000000E+00
 Reduced coordinates (xred)
 -5.81173037146339E-05 -5.81173037146339E-05  0.00000000000000E+00
  4.99925785103804E-01  4.99925785103804E-01  5.00000000000000E-01
  8.05974375840354E-01  1.93023746783438E-01  5.00000000000000E-01
  1.93023746783438E-01  8.05974375840354E-01  5.00000000000000E-01
  3.06042702765067E-01  3.06042702765067E-01  0.00000000000000E+00
  6.93091506811052E-01  6.93091506811052E-01  0.00000000000000E+00
 Scale of Primitive Cell (acell) [bohr]
  9.12584843387149E+00  9.12584843387149E+00  6.12201884711644E+00
 Real space primitive translations (rprimd) [bohr]
  9.12584843382123E+00  3.02866602776463E-05  0.00000000000000E+00
  3.02866602776463E-05  9.12584843382123E+00  0.00000000000000E+00
  0.00000000000000E+00  0.00000000000000E+00  6.12201884711644E+00
 Unitary Cell Volume (ucvol) [Bohr^3]=  5.09848522801342E+02
 Angles (23,13,12)= [degrees]
  9.00000000000000E+01  9.00000000000000E+01  8.99996196961144E+01
 Lengths [Bohr]
  9.12584843387149E+00  9.12584843387149E+00  6.12201884711644E+00

---SELF-CONSISTENT-FIELD CONVERGENCE--------------------------------------------

 getcut: wavevector=  0.0000  0.0000  0.0000  ngfft=  54  54  36
         ecut(hartree)=     37.500   => boxcut(ratio)=   2.13318

 ITER STEP NUMBER     1
 vtorho : nnsclo_now=2, note that nnsclo,dbl_nnsclo,istep=0 0 1
 Total charge density [el/Bohr^3]
      Maximum=    1.2753E+00  at reduced coord.    0.4444    0.4630    0.5833
      Minimum=    1.0876E-04  at reduced coord.    0.0000    0.0000    0.0000
   Integrated=    5.2000E+01
 ETOT  1  -223.79230377558    -2.238E+02 1.827E-05 7.565E+00
 scprqt: <Vxc>= -4.1132930E-01 hartree

Simple mixing update:
  residual square of the potential :   3.0463364641238067
 scfcv: previous iteration took 41 [s]

 ITER STEP NUMBER     2
 vtorho : nnsclo_now=2, note that nnsclo,dbl_nnsclo,istep=0 0 2
 Total charge density [el/Bohr^3]
      Maximum=    1.2780E+00  at reduced coord.    0.4444    0.4630    0.5833
      Minimum=    1.1085E-04  at reduced coord.    0.5000    0.5000    0.5000
   Integrated=    5.2000E+01
 ETOT  2  -223.79259796260    -2.942E-04 9.916E-06 2.479E+00
 scprqt: <Vxc>= -4.0943628E-01 hartree

 Pulay update with  1 previous iterations:
 mixing of old trial potential : alpha(m:m-4)=  0.661      0.339
 scfcv: previous iteration took 41 [s]

 ITER STEP NUMBER     3
 vtorho : nnsclo_now=1, note that nnsclo,dbl_nnsclo,istep=0 0 3
 Total charge density [el/Bohr^3]
      Maximum=    1.2782E+00  at reduced coord.    0.4444    0.4630    0.5833
      Minimum=    1.1162E-04  at reduced coord.    0.0000    0.0000    0.0000
   Integrated=    5.2000E+01
 ETOT  3  -223.79325595117    -6.580E-04 1.757E-05 6.139E-01
 scprqt: <Vxc>= -4.1044535E-01 hartree

 Pulay update with  2 previous iterations:
 mixing of old trial potential : alpha(m:m-4)=  0.766      0.310     -0.756E-01
 scfcv: previous iteration took 21 [s]

 ITER STEP NUMBER     4
 vtorho : nnsclo_now=1, note that nnsclo,dbl_nnsclo,istep=0 0 4
 Total charge density [el/Bohr^3]
      Maximum=    1.2776E+00  at reduced coord.    0.4444    0.4630    0.5833
      Minimum=    1.0935E-04  at reduced coord.    0.5000    0.5000    0.5000
   Integrated=    5.2000E+01
 ETOT  4  -223.79345389713    -1.979E-04 3.029E-06 1.594E-02
 scprqt: <Vxc>= -4.1007821E-01 hartree

 Pulay update with  3 previous iterations:
 mixing of old trial potential : alpha(m:m-4)=   1.08     -0.153E-01 -0.224E-01 -0.399E-01
 scfcv: previous iteration took 20 [s]

 ITER STEP NUMBER     5
 vtorho : nnsclo_now=1, note that nnsclo,dbl_nnsclo,istep=0 0 5
 Total charge density [el/Bohr^3]
      Maximum=    1.2778E+00  at reduced coord.    0.4444    0.4630    0.5833
      Minimum=    1.1030E-04  at reduced coord.    0.5000    0.5000    0.5000
   Integrated=    5.2000E+01
 ETOT  5  -223.79345566343    -1.766E-06 2.385E-06 7.994E-04
 scprqt: <Vxc>= -4.1002935E-01 hartree

 Pulay update with  4 previous iterations:
 mixing of old trial potential : alpha(m:m-4)=  0.957      0.112     -0.531E-01 -0.198E-01  0.385E-02
 scfcv: previous iteration took 19 [s]

 ITER STEP NUMBER     6
 vtorho : nnsclo_now=1, note that nnsclo,dbl_nnsclo,istep=0 0 6
 Total charge density [el/Bohr^3]
      Maximum=    1.2778E+00  at reduced coord.    0.4444    0.4630    0.5833
      Minimum=    1.1024E-04  at reduced coord.    0.0000    0.0000    0.0000
   Integrated=    5.2000E+01
 ETOT  6  -223.79345563514     2.829E-08 6.456E-07 8.579E-04
 scprqt: <Vxc>= -4.1002823E-01 hartree

 Pulay update with  5 previous iterations:
 mixing of old trial potential : alpha(m:m-4)=  0.471      0.596     -0.312E-01 -0.314E-01 -0.106E-01
 scfcv: previous iteration took 19 [s]

 ITER STEP NUMBER     7
 vtorho : nnsclo_now=1, note that nnsclo,dbl_nnsclo,istep=0 0 7
 Total charge density [el/Bohr^3]
      Maximum=    1.2778E+00  at reduced coord.    0.4444    0.4630    0.5833
      Minimum=    1.1024E-04  at reduced coord.    0.0000    0.0000    0.0000
   Integrated=    5.2000E+01
 ETOT  7  -223.79345581023    -1.751E-07 6.940E-07 7.282E-06
 scprqt: <Vxc>= -4.1002819E-01 hartree

 Pulay update with  6 previous iterations:
 mixing of old trial potential : alpha(m:m-4)=   1.03      0.299E-01 -0.509E-01 -0.109E-01  0.439E-02
 scfcv: previous iteration took 19 [s]

 ITER STEP NUMBER     8
 vtorho : nnsclo_now=1, note that nnsclo,dbl_nnsclo,istep=0 0 8
 Total charge density [el/Bohr^3]
      Maximum=    1.2778E+00  at reduced coord.    0.4444    0.4630    0.5833
      Minimum=    1.1024E-04  at reduced coord.    0.0000    0.0000    0.0000
   Integrated=    5.2000E+01
 ETOT  8  -223.79345581198    -1.750E-09 2.372E-07 4.785E-07
 scprqt: <Vxc>= -4.1002885E-01 hartree

 Pulay update with  7 previous iterations:
 mixing of old trial potential : alpha(m:m-4)=  0.774      0.268     -0.373E-02 -0.389E-01 -0.191E-02
 scfcv: previous iteration took 19 [s]

 ITER STEP NUMBER     9
 vtorho : nnsclo_now=1, note that nnsclo,dbl_nnsclo,istep=0 0 9
 Total charge density [el/Bohr^3]
      Maximum=    1.2778E+00  at reduced coord.    0.4444    0.4630    0.5833
      Minimum=    1.1024E-04  at reduced coord.    0.0000    0.0000    0.0000
   Integrated=    5.2000E+01
 ETOT  9  -223.79345581204    -5.758E-11 2.614E-07 3.211E-07
 scprqt: <Vxc>= -4.1002888E-01 hartree

 Pulay update with  7 previous iterations:
 mixing of old trial potential : alpha(m:m-4)=  0.597      0.389      0.158E-01  0.547E-02 -0.648E-02
 scfcv: previous iteration took 19 [s]

 ITER STEP NUMBER    10
 vtorho : nnsclo_now=1, note that nnsclo,dbl_nnsclo,istep=0 0 10
 Total charge density [el/Bohr^3]
      Maximum=    1.2778E+00  at reduced coord.    0.4444    0.4630    0.5833
      Minimum=    1.1024E-04  at reduced coord.    0.0000    0.0000    0.0000
   Integrated=    5.2000E+01
 ETOT 10  -223.79345581208    -4.403E-11 9.320E-08 7.485E-08
 scprqt: <Vxc>= -4.1002887E-01 hartree

 Pulay update with  7 previous iterations:
 mixing of old trial potential : alpha(m:m-4)=  0.689      0.345      0.255E-01 -0.631E-01  0.267E-02
 scfcv: previous iteration took 19 [s]

 ITER STEP NUMBER    11
 vtorho : nnsclo_now=1, note that nnsclo,dbl_nnsclo,istep=0 0 11
 Total charge density [el/Bohr^3]
      Maximum=    1.2778E+00  at reduced coord.    0.4444    0.4630    0.5833
      Minimum=    1.1024E-04  at reduced coord.    0.0000    0.0000    0.0000
   Integrated=    5.2000E+01
 ETOT 11  -223.79345581210    -1.563E-11 1.083E-07 5.130E-10
 scprqt: <Vxc>= -4.1002887E-01 hartree

 Pulay update with  7 previous iterations:
 mixing of old trial potential : alpha(m:m-4)=   1.02      0.816E-03 -0.121E-01 -0.116E-01  0.290E-02
 scfcv: previous iteration took 19 [s]

 ITER STEP NUMBER    12
 vtorho : nnsclo_now=1, note that nnsclo,dbl_nnsclo,istep=0 0 12
 Total charge density [el/Bohr^3]
      Maximum=    1.2778E+00  at reduced coord.    0.4444    0.4630    0.5833
      Minimum=    1.1024E-04  at reduced coord.    0.0000    0.0000    0.0000
   Integrated=    5.2000E+01
 ETOT 12  -223.79345581210    -4.036E-12 3.956E-08 4.548E-11
 scprqt: <Vxc>= -4.1002887E-01 hartree

 Pulay update with  7 previous iterations:
 mixing of old trial potential : alpha(m:m-4)=  0.817      0.188      0.219E-03 -0.319E-03 -0.363E-02
 scfcv: previous iteration took 20 [s]

 ITER STEP NUMBER    13
 vtorho : nnsclo_now=1, note that nnsclo,dbl_nnsclo,istep=0 0 13
 Total charge density [el/Bohr^3]
      Maximum=    1.2778E+00  at reduced coord.    0.4444    0.4630    0.5833
      Minimum=    1.1024E-04  at reduced coord.    0.0000    0.0000    0.0000
   Integrated=    5.2000E+01
 ETOT 13  -223.79345581210     2.814E-12 4.635E-08 7.394E-12
 scprqt: <Vxc>= -4.1002887E-01 hartree

 Pulay update with  7 previous iterations:
 mixing of old trial potential : alpha(m:m-4)=  0.929      0.880E-01 -0.157E-01  0.212E-03 -0.229E-02
 scfcv: previous iteration took 20 [s]

 ITER STEP NUMBER    14
 vtorho : nnsclo_now=1, note that nnsclo,dbl_nnsclo,istep=0 0 14
 Total charge density [el/Bohr^3]
      Maximum=    1.2778E+00  at reduced coord.    0.4444    0.4630    0.5833
      Minimum=    1.1024E-04  at reduced coord.    0.0000    0.0000    0.0000
   Integrated=    5.2000E+01
 ETOT 14  -223.79345581210     1.393E-12 1.729E-08 4.852E-13
 scprqt: <Vxc>= -4.1002887E-01 hartree

 Pulay update with  7 previous iterations:
 mixing of old trial potential : alpha(m:m-4)=   1.03      0.466E-01 -0.683E-01 -0.115E-01  0.193E-02
 scfcv: previous iteration took 20 [s]

 ITER STEP NUMBER    15
 vtorho : nnsclo_now=1, note that nnsclo,dbl_nnsclo,istep=0 0 15
 Total charge density [el/Bohr^3]
      Maximum=    1.2778E+00  at reduced coord.    0.4444    0.4630    0.5833
      Minimum=    1.1024E-04  at reduced coord.    0.0000    0.0000    0.0000
   Integrated=    5.2000E+01
 ETOT 15  -223.79345581210    -1.450E-12 2.018E-08 5.336E-14
 scprqt: <Vxc>= -4.1002887E-01 hartree

 Pulay update with  7 previous iterations:
 mixing of old trial potential : alpha(m:m-4)=  0.861      0.124      0.163E-01 -0.182E-03 -0.128E-02
 scfcv: previous iteration took 21 [s]

 ITER STEP NUMBER    16
 vtorho : nnsclo_now=1, note that nnsclo,dbl_nnsclo,istep=0 0 16
 Total charge density [el/Bohr^3]
      Maximum=    1.2778E+00  at reduced coord.    0.4444    0.4630    0.5833
      Minimum=    1.1024E-04  at reduced coord.    0.0000    0.0000    0.0000
   Integrated=    5.2000E+01
 ETOT 16  -223.79345581210     2.530E-12 7.626E-09 1.639E-15
 scprqt: <Vxc>= -4.1002887E-01 hartree

 Pulay update with  7 previous iterations:
 mixing of old trial potential : alpha(m:m-4)=   1.31     -0.178     -0.136      0.267E-02  0.480E-02
 scfcv: previous iteration took 21 [s]

 ITER STEP NUMBER    17
 vtorho : nnsclo_now=1, note that nnsclo,dbl_nnsclo,istep=0 0 17
 Total charge density [el/Bohr^3]
      Maximum=    1.2778E+00  at reduced coord.    0.4444    0.4630    0.5833
      Minimum=    1.1024E-04  at reduced coord.    0.0000    0.0000    0.0000
   Integrated=    5.2000E+01
 ETOT 17  -223.79345581210    -1.791E-12 8.877E-09 2.171E-16
 scprqt: <Vxc>= -4.1002887E-01 hartree

 Pulay update with  7 previous iterations:
 mixing of old trial potential : alpha(m:m-4)=  0.958      0.122E-01  0.226E-01  0.116E-01 -0.383E-02
 scfcv: previous iteration took 21 [s]

 ITER STEP NUMBER    18
 vtorho : nnsclo_now=1, note that nnsclo,dbl_nnsclo,istep=0 0 18
 Total charge density [el/Bohr^3]
      Maximum=    1.2778E+00  at reduced coord.    0.4444    0.4630    0.5833
      Minimum=    1.1024E-04  at reduced coord.    0.0000    0.0000    0.0000
   Integrated=    5.2000E+01
 ETOT 18  -223.79345581210     5.684E-14 3.384E-09 1.812E-17
 scprqt: <Vxc>= -4.1002887E-01 hartree

 Pulay update with  7 previous iterations:
 mixing of old trial potential : alpha(m:m-4)=  0.855      0.227     -0.858E-01  0.469E-03  0.399E-02
 scfcv: previous iteration took 21 [s]

 ITER STEP NUMBER    19
 vtorho : nnsclo_now=1, note that nnsclo,dbl_nnsclo,istep=0 0 19
 Total charge density [el/Bohr^3]
      Maximum=    1.2778E+00  at reduced coord.    0.4444    0.4630    0.5833
      Minimum=    1.1024E-04  at reduced coord.    0.0000    0.0000    0.0000
   Integrated=    5.2000E+01
 ETOT 19  -223.79345581210    -1.080E-12 3.942E-09 2.074E-19
 scprqt: <Vxc>= -4.1002887E-01 hartree

 Pulay update with  7 previous iterations:
 mixing of old trial potential : alpha(m:m-4)=  0.993      0.228E-01 -0.895E-02 -0.858E-02  0.145E-02
 scfcv: previous iteration took 21 [s]

 ITER STEP NUMBER    20
 vtorho : nnsclo_now=1, note that nnsclo,dbl_nnsclo,istep=0 0 20
 Total charge density [el/Bohr^3]
      Maximum=    1.2778E+00  at reduced coord.    0.4444    0.4630    0.5833
      Minimum=    1.1024E-04  at reduced coord.    0.0000    0.0000    0.0000
   Integrated=    5.2000E+01
 ETOT 20  -223.79345581210    -1.251E-12 1.510E-09 1.104E-20
 scprqt: <Vxc>= -4.1002887E-01 hartree

 Pulay update with  7 previous iterations:
 mixing of old trial potential : alpha(m:m-4)=  0.888      0.131     -0.145E-01 -0.505E-02  0.665E-03
 scfcv: previous iteration took 21 [s]

 ITER STEP NUMBER    21
 vtorho : nnsclo_now=1, note that nnsclo,dbl_nnsclo,istep=0 0 21
 Total charge density [el/Bohr^3]
      Maximum=    1.2778E+00  at reduced coord.    0.4444    0.4630    0.5833
      Minimum=    1.1024E-04  at reduced coord.    0.0000    0.0000    0.0000
   Integrated=    5.2000E+01
 ETOT 21  -223.79345581210     1.137E-13 1.764E-09 2.136E-21
 scprqt: <Vxc>= -4.1002887E-01 hartree

 Pulay update with  7 previous iterations:
 mixing of old trial potential : alpha(m:m-4)=  0.887      0.198     -0.815E-01 -0.344E-02 -0.406E-03
 scfcv: previous iteration took 21 [s]

 ITER STEP NUMBER    22
 vtorho : nnsclo_now=1, note that nnsclo,dbl_nnsclo,istep=0 0 22
 cgwf: converged with tan2th=     -2.7952E-16
 cgwf: converged with tan2th=     -4.0431E-16
 cgwf: converged with tan2th=     -4.0662E-16
 cgwf: converged with tan2th=     -1.4211E-16
 cgwf: converged with tan2th=     -3.8624E-16
 cgwf: converged with tan2th=     -3.8709E-16
 cgwf: converged with tan2th=     -4.4106E-16
 cgwf: converged with tan2th=     -2.3494E-16
 cgwf: converged with tan2th=     -4.3106E-16
 cgwf: converged with tan2th=     -4.0205E-16
 cgwf: converged with tan2th=     -3.2446E-16
 Total charge density [el/Bohr^3]
      Maximum=    1.2778E+00  at reduced coord.    0.4444    0.4630    0.5833
      Minimum=    1.1024E-04  at reduced coord.    0.0000    0.0000    0.0000
   Integrated=    5.2000E+01
 ETOT 22  -223.79345581210    -8.527E-14 8.076E-10 4.720E-22
 scprqt: <Vxc>= -4.1002887E-01 hartree

 At SCF step   22, etot is converged : 
  for the second time, diff in etot=  8.527E-14 < toldfe=  5.000E-13

 Cartesian components of stress tensor (hartree/bohr^3)
  sigma(1 1)= -2.27190502E-05  sigma(3 2)=  0.00000000E+00
  sigma(2 2)= -2.27190502E-05  sigma(3 1)=  0.00000000E+00
  sigma(3 3)= -4.18638626E-05  sigma(2 1)=  8.68957749E-09

 fftdatar_write: About to write data to: relax_xo_TIM2_DEN with iomode IO_MODE_FORTRAN
 IO operation completed. cpu_time:       0.0 [s], walltime:       0.0 [s]
 Write iteration in HIST netCDF file

---OUTPUT-----------------------------------------------------------------------

 Cartesian coordinates (xcart) [bohr]
 -5.30371465261139E-04 -5.30371465261139E-04  0.00000000000000E+00
  4.56226208409882E+00  4.56226208409882E+00  3.06100942355822E+00
  7.35520584150738E+00  1.76152986754606E+00  3.06100942355822E+00
  1.76152986754606E+00  7.35520584150738E+00  3.06100942355822E+00
  2.79290858872237E+00  2.79290858872237E+00  0.00000000000000E+00
  6.32506903335344E+00  6.32506903335344E+00  0.00000000000000E+00
 Reduced coordinates (xred)
 -5.81173037146339E-05 -5.81173037146339E-05  0.00000000000000E+00
  4.99925785103804E-01  4.99925785103804E-01  5.00000000000000E-01
  8.05974375840354E-01  1.93023746783438E-01  5.00000000000000E-01
  1.93023746783438E-01  8.05974375840354E-01  5.00000000000000E-01
  3.06042702765067E-01  3.06042702765067E-01  0.00000000000000E+00
  6.93091506811052E-01  6.93091506811052E-01  0.00000000000000E+00
 Cartesian forces (fcart) [Ha/bohr]; max,rms= 5.96608E-04 3.06332E-04 (free atoms)
 -4.09166883398137E-04 -4.09166883398137E-04 -0.00000000000000E+00
 -4.48305675165410E-04 -4.48305675165410E-04 -0.00000000000000E+00
  2.01238065235168E-04 -1.67596396593705E-04 -0.00000000000000E+00
 -1.67596396593705E-04  2.01238065235168E-04 -0.00000000000000E+00
  5.96608063181449E-04  5.96608063181449E-04 -0.00000000000000E+00
  2.27222826740635E-04  2.27222826740635E-04 -0.00000000000000E+00
 Reduced forces (fred)
  3.73400735432880E-03  3.73400735432880E-03  0.00000000000000E+00
  4.09118322126311E-03  4.09118322126311E-03  0.00000000000000E+00
 -1.83646300651645E-03  1.52945321853983E-03 -0.00000000000000E+00
  1.52945321853983E-03 -1.83646300651645E-03 -0.00000000000000E+00
 -5.44457282825527E-03 -5.44457282825527E-03 -0.00000000000000E+00
 -2.07360795936002E-03 -2.07360795936002E-03 -0.00000000000000E+00
 Scale of Primitive Cell (acell) [bohr]
  9.12584843387149E+00  9.12584843387149E+00  6.12201884711644E+00
 Real space primitive translations (rprimd) [bohr]
  9.12584843382123E+00  3.02866602776463E-05  0.00000000000000E+00
  3.02866602776463E-05  9.12584843382123E+00  0.00000000000000E+00
  0.00000000000000E+00  0.00000000000000E+00  6.12201884711644E+00
 Unitary Cell Volume (ucvol) [Bohr^3]=  5.09848522801342E+02
 Angles (23,13,12)= [degrees]
  9.00000000000000E+01  9.00000000000000E+01  8.99996196961144E+01
 Lengths [Bohr]
  9.12584843387149E+00  9.12584843387149E+00  6.12201884711644E+00
 Stress tensor in cartesian coordinates (strten) [Ha/bohr^3]
 -2.27190502062116E-05  8.68957748993687E-09  0.00000000000000E+00
  8.68957748993687E-09 -2.27190502062116E-05  0.00000000000000E+00
  0.00000000000000E+00  0.00000000000000E+00 -4.18638626493856E-05
 Total energy (etotal) [Ha]= -2.23793455812099E+02

 Difference of energy with previous step (new-old):
           Absolute (Ha)=-1.80883E-04
           Relative     =-8.08258E-07
 fconv : at Broyd/MD step   2, gradients have not converged yet. 
  max grad (force/stress) = 4.1864E-03 > tolmxf= 5.0000E-10 ha/bohr (free atoms)

 Geometry Optimization Precondition:           0
 EXIT:           1           1
 mover: previous time step took 08:18

--- Iteration: (  3/100) Internal Cycle: (1/1)
--------------------------------------------------------------------------------

 Cartesian coordinates (xcart) [bohr]
 -1.23507454728388E-03 -1.23507454728388E-03  0.00000000000000E+00
  4.56687588534518E+00  4.56687588534518E+00  3.06765873515226E+00
  7.36423549818295E+00  1.76332068085378E+00  3.06765873515226E+00
  1.76332068085378E+00  7.36423549818295E+00  3.06765873515226E+00
  2.79722865006186E+00  2.79722865006186E+00  0.00000000000000E+00
  6.33293281979286E+00  6.33293281979286E+00  0.00000000000000E+00
 Reduced coordinates (xred)
 -1.35178011797178E-04 -1.35178011797178E-04  0.00000000000000E+00
  4.99841247366867E-01  4.99841247366867E-01  5.00000000000000E-01
  8.06011731698681E-01  1.92992660030269E-01  5.00000000000000E-01
  1.92992660030269E-01  8.06011731698681E-01  5.00000000000000E-01
  3.06154643287744E-01  3.06154643287744E-01  0.00000000000000E+00
  6.93134895628235E-01  6.93134895628235E-01  0.00000000000000E+00
 Scale of Primitive Cell (acell) [bohr]
  9.13663024128221E+00  9.13663024128221E+00  6.13531747030453E+00
 Real space primitive translations (rprimd) [bohr]
  9.13663024125459E+00  2.24647859899760E-05  0.00000000000000E+00
  2.24647859899760E-05  9.13663024125459E+00  0.00000000000000E+00
  0.00000000000000E+00  0.00000000000000E+00  6.13531747030453E+00
 Unitary Cell Volume (ucvol) [Bohr^3]=  5.12164106421624E+02
 Angles (23,13,12)= [degrees]
  9.00000000000000E+01  9.00000000000000E+01  8.99997182467954E+01
 Lengths [Bohr]
  9.13663024128221E+00  9.13663024128221E+00  6.13531747030453E+00

---SELF-CONSISTENT-FIELD CONVERGENCE--------------------------------------------

 getcut: wavevector=  0.0000  0.0000  0.0000  ngfft=  54  54  36
         ecut(hartree)=     37.500   => boxcut(ratio)=   2.12855

 ITER STEP NUMBER     1
 vtorho : nnsclo_now=2, note that nnsclo,dbl_nnsclo,istep=0 0 1
 Total charge density [el/Bohr^3]
      Maximum=    1.2757E+00  at reduced coord.    0.4444    0.4630    0.5833
      Minimum=    1.0930E-04  at reduced coord.    0.0000    0.0000    0.0000
   Integrated=    5.2000E+01
 ETOT  1  -223.79295029961    -2.238E+02 7.142E-07 3.528E+00
 scprqt: <Vxc>= -4.1004838E-01 hartree

Simple mixing update:
  residual square of the potential :   1.4356883009565398
 scfcv: previous iteration took 41 [s]

 ITER STEP NUMBER     2
 vtorho : nnsclo_now=2, note that nnsclo,dbl_nnsclo,istep=0 0 2
 Total charge density [el/Bohr^3]
      Maximum=    1.2775E+00  at reduced coord.    0.4444    0.4630    0.5833
      Minimum=    1.1071E-04  at reduced coord.    0.5000    0.5000    0.5000
   Integrated=    5.2000E+01
 ETOT  2  -223.79308250990    -1.322E-04 2.407E-07 1.198E+00
 scprqt: <Vxc>= -4.0874093E-01 hartree

 Pulay update with  1 previous iterations:
 mixing of old trial potential : alpha(m:m-4)=  0.656      0.344
 scfcv: previous iteration took 41 [s]

 ITER STEP NUMBER     3
 vtorho : nnsclo_now=1, note that nnsclo,dbl_nnsclo,istep=0 0 3
 Total charge density [el/Bohr^3]
      Maximum=    1.2776E+00  at reduced coord.    0.4444    0.4630    0.5833
      Minimum=    1.1127E-04  at reduced coord.    0.0000    0.0000    0.0000
   Integrated=    5.2000E+01
 ETOT  3  -223.79340247821    -3.200E-04 8.307E-06 2.887E-01
 scprqt: <Vxc>= -4.0943730E-01 hartree

 Pulay update with  2 previous iterations:
 mixing of old trial potential : alpha(m:m-4)=  0.770      0.306     -0.764E-01
 scfcv: previous iteration took 21 [s]

 ITER STEP NUMBER     4
 vtorho : nnsclo_now=1, note that nnsclo,dbl_nnsclo,istep=0 0 4
 Total charge density [el/Bohr^3]
      Maximum=    1.2772E+00  at reduced coord.    0.4444    0.4630    0.5833
      Minimum=    1.0970E-04  at reduced coord.    0.5000    0.5000    0.5000
   Integrated=    5.2000E+01
 ETOT  4  -223.79349547269    -9.299E-05 6.843E-07 7.565E-03
 scprqt: <Vxc>= -4.0918451E-01 hartree

 Pulay update with  3 previous iterations:
 mixing of old trial potential : alpha(m:m-4)=   1.07     -0.121E-01 -0.217E-01 -0.404E-01
 scfcv: previous iteration took 21 [s]

 ITER STEP NUMBER     5
 vtorho : nnsclo_now=1, note that nnsclo,dbl_nnsclo,istep=0 0 5
 Total charge density [el/Bohr^3]
      Maximum=    1.2774E+00  at reduced coord.    0.4444    0.4630    0.5833
      Minimum=    1.1035E-04  at reduced coord.    0.5000    0.5000    0.5000
   Integrated=    5.2000E+01
 ETOT  5  -223.79349632531    -8.526E-07 2.742E-08 3.360E-04
 scprqt: <Vxc>= -4.0915144E-01 hartree

 Pulay update with  4 previous iterations:
 mixing of old trial potential : alpha(m:m-4)=  0.987      0.811E-01 -0.542E-01 -0.190E-01  0.527E-02
 scfcv: previous iteration took 21 [s]

 ITER STEP NUMBER     6
 vtorho : nnsclo_now=1, note that nnsclo,dbl_nnsclo,istep=0 0 6
 Total charge density [el/Bohr^3]
      Maximum=    1.2774E+00  at reduced coord.    0.4444    0.4630    0.5833
      Minimum=    1.1031E-04  at reduced coord.    0.0000    0.0000    0.0000
   Integrated=    5.2000E+01
 ETOT  6  -223.79349631411     1.120E-08 6.002E-09 3.416E-04
 scprqt: <Vxc>= -4.0915021E-01 hartree

 Pulay update with  5 previous iterations:
 mixing of old trial potential : alpha(m:m-4)=  0.459      0.608     -0.301E-01 -0.320E-01 -0.105E-01
 scfcv: previous iteration took 21 [s]

 ITER STEP NUMBER     7
 vtorho : nnsclo_now=1, note that nnsclo,dbl_nnsclo,istep=0 0 7
 Total charge density [el/Bohr^3]
      Maximum=    1.2774E+00  at reduced coord.    0.4444    0.4630    0.5833
      Minimum=    1.1031E-04  at reduced coord.    0.0000    0.0000    0.0000
   Integrated=    5.2000E+01
 ETOT  7  -223.79349638580    -7.169E-08 2.041E-09 5.149E-06
 scprqt: <Vxc>= -4.0915025E-01 hartree

 Pulay update with  6 previous iterations:
 mixing of old trial potential : alpha(m:m-4)=  0.947      0.775E-01 -0.133E-01 -0.138E-01  0.235E-02
 scfcv: previous iteration took 21 [s]

 ITER STEP NUMBER     8
 vtorho : nnsclo_now=1, note that nnsclo,dbl_nnsclo,istep=0 0 8
 Total charge density [el/Bohr^3]
      Maximum=    1.2774E+00  at reduced coord.    0.4444    0.4630    0.5833
      Minimum=    1.1031E-04  at reduced coord.    0.0000    0.0000    0.0000
   Integrated=    5.2000E+01
 ETOT  8  -223.79349638696    -1.163E-09 1.400E-09 4.774E-07
 scprqt: <Vxc>= -4.0915072E-01 hartree

 Pulay update with  7 previous iterations:
 mixing of old trial potential : alpha(m:m-4)=  0.731      0.311      0.268E-02 -0.453E-01 -0.268E-02
 scfcv: previous iteration took 21 [s]

 ITER STEP NUMBER     9
 vtorho : nnsclo_now=1, note that nnsclo,dbl_nnsclo,istep=0 0 9
 Total charge density [el/Bohr^3]
      Maximum=    1.2774E+00  at reduced coord.    0.4444    0.4630    0.5833
      Minimum=    1.1031E-04  at reduced coord.    0.0000    0.0000    0.0000
   Integrated=    5.2000E+01
 ETOT  9  -223.79349638703    -6.693E-11 7.954E-10 2.538E-07
 scprqt: <Vxc>= -4.0915077E-01 hartree

 Pulay update with  7 previous iterations:
 mixing of old trial potential : alpha(m:m-4)=  0.542      0.387      0.757E-01  0.759E-02 -0.110E-01
 scfcv: previous iteration took 21 [s]

 ITER STEP NUMBER    10
 vtorho : nnsclo_now=1, note that nnsclo,dbl_nnsclo,istep=0 0 10
 Total charge density [el/Bohr^3]
      Maximum=    1.2774E+00  at reduced coord.    0.4444    0.4630    0.5833
      Minimum=    1.1031E-04  at reduced coord.    0.0000    0.0000    0.0000
   Integrated=    5.2000E+01
 ETOT 10  -223.79349638707    -4.772E-11 9.578E-10 3.560E-08
 scprqt: <Vxc>= -4.0915075E-01 hartree

 Pulay update with  7 previous iterations:
 mixing of old trial potential : alpha(m:m-4)=  0.855      0.234     -0.273E-01 -0.651E-01  0.163E-02
 scfcv: previous iteration took 21 [s]

 ITER STEP NUMBER    11
 vtorho : nnsclo_now=1, note that nnsclo,dbl_nnsclo,istep=0 0 11
 Total charge density [el/Bohr^3]
      Maximum=    1.2774E+00  at reduced coord.    0.4444    0.4630    0.5833
      Minimum=    1.1031E-04  at reduced coord.    0.0000    0.0000    0.0000
   Integrated=    5.2000E+01
 ETOT 11  -223.79349638708    -2.018E-12 6.823E-10 1.565E-10
 scprqt: <Vxc>= -4.0915076E-01 hartree

 Pulay update with  7 previous iterations:
 mixing of old trial potential : alpha(m:m-4)=   1.02     -0.129E-01 -0.455E-03 -0.419E-02  0.237E-02
 scfcv: previous iteration took 21 [s]

 ITER STEP NUMBER    12
 vtorho : nnsclo_now=1, note that nnsclo,dbl_nnsclo,istep=0 0 12
 Total charge density [el/Bohr^3]
      Maximum=    1.2774E+00  at reduced coord.    0.4444    0.4630    0.5833
      Minimum=    1.1031E-04  at reduced coord.    0.0000    0.0000    0.0000
   Integrated=    5.2000E+01
 ETOT 12  -223.79349638708    -3.382E-12 8.357E-10 6.482E-11
 scprqt: <Vxc>= -4.0915075E-01 hartree

 Pulay update with  7 previous iterations:
 mixing of old trial potential : alpha(m:m-4)=  0.853      0.148     -0.233E-02  0.523E-02 -0.363E-02
 scfcv: previous iteration took 21 [s]

 ITER STEP NUMBER    13
 vtorho : nnsclo_now=1, note that nnsclo,dbl_nnsclo,istep=0 0 13
 Total charge density [el/Bohr^3]
      Maximum=    1.2774E+00  at reduced coord.    0.4444    0.4630    0.5833
      Minimum=    1.1031E-04  at reduced coord.    0.0000    0.0000    0.0000
   Integrated=    5.2000E+01
 ETOT 13  -223.79349638708    -5.400E-13 6.141E-10 8.205E-12
 scprqt: <Vxc>= -4.0915076E-01 hartree

 Pulay update with  7 previous iterations:
 mixing of old trial potential : alpha(m:m-4)=  0.964      0.833E-01 -0.448E-01 -0.354E-02  0.579E-03
 scfcv: previous iteration took 21 [s]

 ITER STEP NUMBER    14
 vtorho : nnsclo_now=1, note that nnsclo,dbl_nnsclo,istep=0 0 14
 Total charge density [el/Bohr^3]
      Maximum=    1.2774E+00  at reduced coord.    0.4444    0.4630    0.5833
      Minimum=    1.1031E-04  at reduced coord.    0.0000    0.0000    0.0000
   Integrated=    5.2000E+01
 ETOT 14  -223.79349638708     1.108E-12 8.088E-10 1.232E-13
 scprqt: <Vxc>= -4.0915076E-01 hartree

 Pulay update with  7 previous iterations:
 mixing of old trial potential : alpha(m:m-4)=  0.930      0.127     -0.483E-01 -0.101E-01  0.103E-02
 scfcv: previous iteration took 20 [s]

 ITER STEP NUMBER    15
 vtorho : nnsclo_now=1, note that nnsclo,dbl_nnsclo,istep=0 0 15
 Total charge density [el/Bohr^3]
      Maximum=    1.2774E+00  at reduced coord.    0.4444    0.4630    0.5833
      Minimum=    1.1031E-04  at reduced coord.    0.0000    0.0000    0.0000
   Integrated=    5.2000E+01
 ETOT 15  -223.79349638708     2.842E-14 5.784E-10 5.334E-14
 scprqt: <Vxc>= -4.0915076E-01 hartree

 Pulay update with  7 previous iterations:
 mixing of old trial potential : alpha(m:m-4)=  0.867      0.105      0.181E-01  0.929E-02  0.118E-02
 scfcv: previous iteration took 20 [s]

 ITER STEP NUMBER    16
 vtorho : nnsclo_now=1, note that nnsclo,dbl_nnsclo,istep=0 0 16
 Total charge density [el/Bohr^3]
      Maximum=    1.2774E+00  at reduced coord.    0.4444    0.4630    0.5833
      Minimum=    1.1031E-04  at reduced coord.    0.0000    0.0000    0.0000
   Integrated=    5.2000E+01
 ETOT 16  -223.79349638708    -7.105E-13 7.942E-10 2.008E-15
 scprqt: <Vxc>= -4.0915076E-01 hartree

 Pulay update with  7 previous iterations:
 mixing of old trial potential : alpha(m:m-4)=   1.08      0.132E-01 -0.893E-01 -0.461E-02  0.194E-02
 scfcv: previous iteration took 20 [s]

 ITER STEP NUMBER    17
 vtorho : nnsclo_now=1, note that nnsclo,dbl_nnsclo,istep=0 0 17
 Total charge density [el/Bohr^3]
      Maximum=    1.2774E+00  at reduced coord.    0.4444    0.4630    0.5833
      Minimum=    1.1031E-04  at reduced coord.    0.0000    0.0000    0.0000
   Integrated=    5.2000E+01
 ETOT 17  -223.79349638708     2.387E-12 5.609E-10 4.651E-16
 scprqt: <Vxc>= -4.0915076E-01 hartree

 Pulay update with  7 previous iterations:
 mixing of old trial potential : alpha(m:m-4)=  0.768      0.273     -0.901E-02 -0.264E-01 -0.503E-02
 scfcv: previous iteration took 20 [s]

 ITER STEP NUMBER    18
 vtorho : nnsclo_now=1, note that nnsclo,dbl_nnsclo,istep=0 0 18
 Total charge density [el/Bohr^3]
      Maximum=    1.2774E+00  at reduced coord.    0.4444    0.4630    0.5833
      Minimum=    1.1031E-04  at reduced coord.    0.0000    0.0000    0.0000
   Integrated=    5.2000E+01
 ETOT 18  -223.79349638707     1.535E-12 7.831E-10 4.031E-17
 scprqt: <Vxc>= -4.0915076E-01 hartree

 Pulay update with  7 previous iterations:
 mixing of old trial potential : alpha(m:m-4)=   1.51     -0.388     -0.159      0.237E-01  0.141E-01
 scfcv: previous iteration took 20 [s]

 ITER STEP NUMBER    19
 vtorho : nnsclo_now=1, note that nnsclo,dbl_nnsclo,istep=0 0 19
 Total charge density [el/Bohr^3]
      Maximum=    1.2774E+00  at reduced coord.    0.4444    0.4630    0.5833
      Minimum=    1.1031E-04  at reduced coord.    0.0000    0.0000    0.0000
   Integrated=    5.2000E+01
 ETOT 19  -223.79349638708    -7.958E-13 5.512E-10 1.206E-17
 scprqt: <Vxc>= -4.0915076E-01 hartree

 Pulay update with  7 previous iterations:
 mixing of old trial potential : alpha(m:m-4)=  0.711      0.455     -0.123     -0.490E-01  0.144E-02
 scfcv: previous iteration took 20 [s]

 ITER STEP NUMBER    20
 vtorho : nnsclo_now=1, note that nnsclo,dbl_nnsclo,istep=0 0 20
 Total charge density [el/Bohr^3]
      Maximum=    1.2774E+00  at reduced coord.    0.4444    0.4630    0.5833
      Minimum=    1.1031E-04  at reduced coord.    0.0000    0.0000    0.0000
   Integrated=    5.2000E+01
 ETOT 20  -223.79349638708     2.558E-13 7.743E-10 1.353E-18
 scprqt: <Vxc>= -4.0915076E-01 hartree

 Pulay update with  7 previous iterations:
 mixing of old trial potential : alpha(m:m-4)=  0.923      0.735E-02  0.773E-01  0.435E-04 -0.509E-02
 scfcv: previous iteration took 20 [s]

 ITER STEP NUMBER    21
 vtorho : nnsclo_now=1, note that nnsclo,dbl_nnsclo,istep=0 0 21
 Total charge density [el/Bohr^3]
      Maximum=    1.2774E+00  at reduced coord.    0.4444    0.4630    0.5833
      Minimum=    1.1031E-04  at reduced coord.    0.0000    0.0000    0.0000
   Integrated=    5.2000E+01
 ETOT 21  -223.79349638708    -1.904E-12 5.447E-10 1.487E-20
 scprqt: <Vxc>= -4.0915076E-01 hartree

 Pulay update with  7 previous iterations:
 mixing of old trial potential : alpha(m:m-4)=  0.893      0.183     -0.637E-01 -0.177E-01  0.365E-02
 scfcv: previous iteration took 20 [s]

 ITER STEP NUMBER    22
 vtorho : nnsclo_now=1, note that nnsclo,dbl_nnsclo,istep=0 0 22
 Total charge density [el/Bohr^3]
      Maximum=    1.2774E+00  at reduced coord.    0.4444    0.4630    0.5833
      Minimum=    1.1031E-04  at reduced coord.    0.0000    0.0000    0.0000
   Integrated=    5.2000E+01
 ETOT 22  -223.79349638708     1.620E-12 7.670E-10 1.041E-21
 scprqt: <Vxc>= -4.0915076E-01 hartree

 Pulay update with  7 previous iterations:
 mixing of old trial potential : alpha(m:m-4)=  0.544      0.414      0.761E-01 -0.263E-01 -0.965E-02
 scfcv: previous iteration took 20 [s]

 ITER STEP NUMBER    23
 vtorho : nnsclo_now=1, note that nnsclo,dbl_nnsclo,istep=0 0 23
 cgwf: converged with tan2th=     -3.2565E-17
 cgwf: converged with tan2th=     -4.4034E-16
 cgwf: converged with tan2th=     -2.6702E-16
 cgwf: converged with tan2th=     -1.0865E-16
 cgwf: converged with tan2th=     -3.7087E-16
 cgwf: converged with tan2th=     -3.8612E-16
 cgwf: converged with tan2th=     -2.8589E-16
 cgwf: converged with tan2th=     -3.3112E-16
 cgwf: converged with tan2th=     -2.3964E-16
 cgwf: converged with tan2th=     -1.5826E-16
 cgwf: converged with tan2th=     -1.4316E-16
 cgwf: converged with tan2th=     -8.3393E-17
 cgwf: converged with tan2th=     -2.0804E-16
 cgwf: converged with tan2th=     -2.8358E-16
 cgwf: converged with tan2th=     -1.9605E-16
 cgwf: converged with tan2th=     -4.4150E-16
 cgwf: converged with tan2th=     -3.1786E-16
 cgwf: converged with tan2th=     -5.9863E-17
 cgwf: converged with tan2th=     -4.0771E-16
 cgwf: converged with tan2th=      1.1149E-16
 cgwf: converged with tan2th=     -3.3355E-16
 cgwf: converged with tan2th=     -2.8626E-16
 cgwf: converged with tan2th=     -4.1413E-16
 cgwf: converged with tan2th=     -2.5081E-16
 cgwf: converged with tan2th=     -4.1704E-16
 cgwf: converged with tan2th=     -3.8291E-16
 cgwf: converged with tan2th=     -4.3855E-16
 cgwf: converged with tan2th=     -2.7738E-16
 cgwf: converged with tan2th=     -3.5342E-16
 cgwf: converged with tan2th=     -3.5323E-16
 cgwf: converged with tan2th=     -4.3016E-16
 cgwf: converged with tan2th=     -2.3662E-16
 cgwf: converged with tan2th=     -3.1335E-16
 cgwf: converged with tan2th=     -1.7874E-16
 cgwf: converged with tan2th=     -3.4942E-16
 cgwf: converged with tan2th=     -6.1045E-17
 cgwf: converged with tan2th=     -2.1879E-16
 cgwf: converged with tan2th=     -3.0814E-16
 cgwf: converged with tan2th=     -1.8453E-16
 cgwf: converged with tan2th=     -3.3475E-16
 cgwf: converged with tan2th=     -3.7311E-16
 cgwf: converged with tan2th=     -2.3264E-16
 cgwf: converged with tan2th=     -3.3869E-16
 cgwf: converged with tan2th=     -5.9258E-17
 cgwf: converged with tan2th=     -4.4260E-16
 cgwf: converged with tan2th=     -2.6674E-16
 cgwf: converged with tan2th=     -1.6571E-16
 cgwf: converged with tan2th=     -2.0355E-16
 cgwf: converged with tan2th=     -3.7705E-16
 cgwf: converged with tan2th=     -3.7767E-16
 cgwf: converged with tan2th=     -4.4097E-16
 cgwf: converged with tan2th=     -2.1073E-16
 cgwf: converged with tan2th=      1.4966E-16
 cgwf: converged with tan2th=     -3.4883E-16
 cgwf: converged with tan2th=     -4.1118E-16
 cgwf: converged with tan2th=     -1.0902E-16
 cgwf: converged with tan2th=     -3.1443E-16
 Total charge density [el/Bohr^3]
      Maximum=    1.2774E+00  at reduced coord.    0.4444    0.4630    0.5833
      Minimum=    1.1031E-04  at reduced coord.    0.0000    0.0000    0.0000
   Integrated=    5.2000E+01
 ETOT 23  -223.79349638708    -4.832E-13 5.395E-10 7.121E-22
 scprqt: <Vxc>= -4.0915076E-01 hartree

 Pulay update with  7 previous iterations:
 mixing of old trial potential : alpha(m:m-4)=  0.400      0.321      0.258      0.432E-01 -0.161E-01
 scfcv: previous iteration took 20 [s]

 ITER STEP NUMBER    24
 vtorho : nnsclo_now=1, note that nnsclo,dbl_nnsclo,istep=0 0 24
 cgwf: converged with tan2th=     -4.0957E-16
 cgwf: converged with tan2th=     -1.5240E-16
 cgwf: converged with tan2th=     -3.1417E-16
 cgwf: converged with tan2th=     -2.3860E-16
 cgwf: converged with tan2th=     -2.9144E-16
 cgwf: converged with tan2th=     -3.5118E-16
 cgwf: converged with tan2th=     -2.7309E-16
 cgwf: converged with tan2th=      3.1452E-17
 cgwf: converged with tan2th=     -2.5619E-17
 cgwf: converged with tan2th=     -4.2302E-16
 cgwf: converged with tan2th=     -2.9769E-16
 cgwf: converged with tan2th=     -3.1074E-16
 cgwf: converged with tan2th=     -3.2230E-16
 cgwf: converged with tan2th=     -3.0229E-16
 cgwf: converged with tan2th=     -2.7312E-16
 cgwf: converged with tan2th=     -1.7209E-16
 cgwf: converged with tan2th=     -4.2894E-16
 cgwf: converged with tan2th=     -3.1314E-16
 cgwf: converged with tan2th=     -2.4140E-16
 cgwf: converged with tan2th=     -5.8755E-17
 cgwf: converged with tan2th=     -3.2682E-16
 cgwf: converged with tan2th=     -2.8257E-16
 cgwf: converged with tan2th=     -3.7310E-16
 cgwf: converged with tan2th=     -4.3700E-16
 cgwf: converged with tan2th=     -2.3610E-16
 cgwf: converged with tan2th=     -5.5393E-17
 cgwf: converged with tan2th=     -1.9546E-16
 cgwf: converged with tan2th=     -2.0693E-16
 cgwf: converged with tan2th=     -8.6092E-17
 cgwf: converged with tan2th=     -3.7150E-16
 cgwf: converged with tan2th=     -4.1923E-16
 cgwf: converged with tan2th=     -2.6858E-16
 cgwf: converged with tan2th=     -1.9894E-16
 cgwf: converged with tan2th=     -6.5458E-17
 cgwf: converged with tan2th=     -1.1080E-16
 cgwf: converged with tan2th=     -3.1693E-16
 cgwf: converged with tan2th=     -3.0285E-16
 cgwf: converged with tan2th=     -1.4567E-16
 cgwf: converged with tan2th=     -2.8166E-16
 cgwf: converged with tan2th=     -3.0345E-16
 cgwf: converged with tan2th=     -1.9861E-16
 cgwf: converged with tan2th=     -1.6063E-16
 cgwf: converged with tan2th=     -2.8888E-16
 cgwf: converged with tan2th=     -1.1564E-17
 cgwf: converged with tan2th=      4.4708E-17
 cgwf: converged with tan2th=     -4.2322E-18
 cgwf: converged with tan2th=      8.5383E-17
 cgwf: converged with tan2th=     -2.8828E-16
 cgwf: converged with tan2th=     -1.7668E-16
 cgwf: converged with tan2th=     -8.5756E-17
 cgwf: converged with tan2th=     -1.2429E-16
 cgwf: converged with tan2th=     -3.7973E-16
 cgwf: converged with tan2th=     -3.4595E-16
 cgwf: converged with tan2th=     -1.4469E-16
 cgwf: converged with tan2th=     -4.0892E-16
 cgwf: converged with tan2th=     -3.0002E-16
 cgwf: converged with tan2th=     -1.6963E-18
 cgwf: converged with tan2th=     -3.0155E-16
 cgwf: converged with tan2th=     -9.7000E-17
 cgwf: converged with tan2th=     -9.9631E-17
 cgwf: converged with tan2th=     -2.9005E-16
 cgwf: converged with tan2th=     -9.7414E-17
 cgwf: converged with tan2th=     -2.9997E-16
 cgwf: converged with tan2th=     -2.2433E-16
 cgwf: converged with tan2th=     -3.2176E-16
 cgwf: converged with tan2th=     -3.3889E-16
 cgwf: converged with tan2th=     -2.8110E-17
 cgwf: converged with tan2th=     -3.4178E-16
 cgwf: converged with tan2th=     -1.2580E-16
 cgwf: converged with tan2th=     -1.6274E-16
 cgwf: converged with tan2th=     -3.2348E-16
 cgwf: converged with tan2th=     -3.2702E-16
 cgwf: converged with tan2th=     -3.1743E-16
 cgwf: converged with tan2th=     -4.0747E-16
 cgwf: converged with tan2th=     -3.6553E-16
 cgwf: converged with tan2th=     -1.8296E-16
 cgwf: converged with tan2th=     -4.4109E-16
 cgwf: converged with tan2th=     -2.2824E-16
 cgwf: converged with tan2th=     -4.1781E-16
 cgwf: converged with tan2th=     -4.1309E-16
 cgwf: converged with tan2th=     -2.8873E-16
 cgwf: converged with tan2th=     -1.6536E-16
 cgwf: converged with tan2th=     -2.8434E-16
 cgwf: converged with tan2th=     -3.1635E-16
 cgwf: converged with tan2th=     -2.0359E-16
 cgwf: converged with tan2th=     -2.9684E-16
 cgwf: converged with tan2th=     -9.1920E-17
 cgwf: converged with tan2th=     -4.0530E-16
 cgwf: converged with tan2th=      5.4298E-17
 cgwf: converged with tan2th=      1.0742E-17
 cgwf: converged with tan2th=     -2.7916E-16
 cgwf: converged with tan2th=     -1.9637E-16
 cgwf: converged with tan2th=     -1.5599E-16
 cgwf: converged with tan2th=     -1.3217E-16
 cgwf: converged with tan2th=     -3.3304E-16
 cgwf: converged with tan2th=     -9.2484E-17
 cgwf: converged with tan2th=     -3.7574E-16
 cgwf: converged with tan2th=     -2.8515E-16
 cgwf: converged with tan2th=     -2.8879E-16
 cgwf: converged with tan2th=     -4.3741E-16
 cgwf: converged with tan2th=     -2.1116E-17
 cgwf: converged with tan2th=     -2.6657E-16
 cgwf: converged with tan2th=      4.4255E-18
 cgwf: converged with tan2th=     -3.4332E-16
 cgwf: converged with tan2th=     -2.6821E-16
 cgwf: converged with tan2th=     -2.5899E-16
 cgwf: converged with tan2th=     -2.7875E-16
 cgwf: converged with tan2th=     -2.4561E-17
 cgwf: converged with tan2th=     -3.5539E-16
 cgwf: converged with tan2th=     -1.6705E-16
 cgwf: converged with tan2th=     -3.9790E-17
 cgwf: converged with tan2th=     -4.0729E-16
 cgwf: converged with tan2th=     -1.0282E-16
 cgwf: converged with tan2th=     -2.0375E-16
 cgwf: converged with tan2th=     -1.5973E-16
 cgwf: converged with tan2th=     -7.2780E-17
 cgwf: converged with tan2th=     -3.7425E-16
 cgwf: converged with tan2th=     -1.5200E-16
 cgwf: converged with tan2th=     -1.4695E-16
 cgwf: converged with tan2th=     -3.9760E-16
 cgwf: converged with tan2th=     -3.6329E-16
 cgwf: converged with tan2th=     -2.8474E-16
 cgwf: converged with tan2th=     -1.9310E-17
 cgwf: converged with tan2th=      2.4270E-17
 cgwf: converged with tan2th=     -8.0127E-17
 cgwf: converged with tan2th=     -1.7482E-17
 cgwf: converged with tan2th=      8.5770E-17
 cgwf: converged with tan2th=     -2.0181E-16
 cgwf: converged with tan2th=     -1.1149E-16
 cgwf: converged with tan2th=     -3.7243E-16
 cgwf: converged with tan2th=     -2.8419E-16
 cgwf: converged with tan2th=     -8.3035E-17
 cgwf: converged with tan2th=     -1.0695E-16
 cgwf: converged with tan2th=     -3.1779E-16
 cgwf: converged with tan2th=     -5.0645E-17
 cgwf: converged with tan2th=     -1.5653E-16
 cgwf: converged with tan2th=     -7.7499E-17
 cgwf: converged with tan2th=     -1.5112E-16
 cgwf: converged with tan2th=     -4.2718E-16
 cgwf: converged with tan2th=     -9.2313E-17
 cgwf: converged with tan2th=     -2.6924E-16
 cgwf: converged with tan2th=     -3.4824E-16
 cgwf: converged with tan2th=     -3.5579E-16
 cgwf: converged with tan2th=     -1.3480E-16
 cgwf: converged with tan2th=     -4.4064E-16
 cgwf: converged with tan2th=     -8.9349E-17
 cgwf: converged with tan2th=     -3.6876E-16
 cgwf: converged with tan2th=     -1.1502E-16
 cgwf: converged with tan2th=     -1.6123E-16
 cgwf: converged with tan2th=     -3.3163E-16
 cgwf: converged with tan2th=     -3.4523E-16
 cgwf: converged with tan2th=     -3.6174E-16
 cgwf: converged with tan2th=     -4.1730E-16
 cgwf: converged with tan2th=     -2.2268E-16
 cgwf: converged with tan2th=     -4.2441E-16
 cgwf: converged with tan2th=     -1.6938E-16
 cgwf: converged with tan2th=     -3.6330E-16
 cgwf: converged with tan2th=     -3.7190E-17
 cgwf: converged with tan2th=     -3.7796E-16
 cgwf: converged with tan2th=     -3.3775E-16
 cgwf: converged with tan2th=     -7.0498E-17
 cgwf: converged with tan2th=     -3.2515E-16
 cgwf: converged with tan2th=     -1.1735E-16
 cgwf: converged with tan2th=     -3.3390E-16
 cgwf: converged with tan2th=     -3.0787E-16
 cgwf: converged with tan2th=     -1.2040E-16
 cgwf: converged with tan2th=     -4.2032E-16
[...]
 Reduced coordinates (xred)
 -1.69190523599193E-04 -1.69190523599193E-04  0.00000000000000E+00
  4.99812498789999E-01  4.99812498789999E-01  5.00000000000000E-01
  8.06060776998282E-01  1.92953676235947E-01  5.00000000000000E-01
  1.92953676235947E-01  8.06060776998282E-01  5.00000000000000E-01
  3.06224940179865E-01  3.06224940179865E-01  0.00000000000000E+00
  6.93117298319505E-01  6.93117298319505E-01  0.00000000000000E+00
 Cartesian forces (fcart) [Ha/bohr]; max,rms= 4.21238E-04 2.24502E-04 (free atoms)
 -1.97198370885254E-04 -1.97198370885254E-04 -0.00000000000000E+00
 -1.41744726897110E-04 -1.41744726897110E-04 -0.00000000000000E+00
  3.48716261856835E-04 -2.52260485321157E-04 -0.00000000000000E+00
 -2.52260485321157E-04  3.48716261856835E-04 -0.00000000000000E+00
  4.21237893685243E-04  4.21237893685242E-04 -0.00000000000000E+00
 -1.78750572438556E-04 -1.78750572438556E-04 -0.00000000000000E+00
 Reduced forces (fred)
  1.80179835163114E-03  1.80179835163114E-03  0.00000000000000E+00
  1.29511929601197E-03  1.29511929601197E-03  0.00000000000000E+00
 -3.18620798393775E-03  2.30489310092377E-03 -0.00000000000000E+00
  2.30489310092377E-03 -3.18620798393775E-03 -0.00000000000000E+00
 -3.84884387776348E-03 -3.84884387776348E-03 -0.00000000000000E+00
  1.63324111313435E-03  1.63324111313435E-03  0.00000000000000E+00
 Scale of Primitive Cell (acell) [bohr]
  9.13697246646975E+00  9.13697246646975E+00  6.13658887460370E+00
 Real space primitive translations (rprimd) [bohr]
  9.13697246646253E+00  1.14931035909201E-05  0.00000000000000E+00
  1.14931035909201E-05  9.13697246646253E+00  0.00000000000000E+00
  0.00000000000000E+00  0.00000000000000E+00  6.13658887460370E+00
 Unitary Cell Volume (ucvol) [Bohr^3]=  5.12308617036518E+02
 Angles (23,13,12)= [degrees]
  9.00000000000000E+01  9.00000000000000E+01  8.99998558589661E+01
 Lengths [Bohr]
  9.13697246646975E+00  9.13697246646975E+00  6.13658887460370E+00
 Stress tensor in cartesian coordinates (strten) [Ha/bohr^3]
  1.84370300666120E-06  9.04507318686844E-09  0.00000000000000E+00
  9.04507318686844E-09  1.84370300666120E-06  0.00000000000000E+00
  0.00000000000000E+00  0.00000000000000E+00 -5.54274205078614E-07
 Total energy (etotal) [Ha]= -2.23793497999844E+02

 Difference of energy with previous step (new-old):
           Absolute (Ha)=-1.61277E-06
           Relative     =-7.20650E-09
 fconv : at Broyd/MD step   4, gradients have not converged yet. 
  max grad (force/stress) = 4.2124E-04 > tolmxf= 5.0000E-10 ha/bohr (free atoms)

 Geometry Optimization Precondition:           0
 EXIT:           1           1
 mover: previous time step took 08:08

--- Iteration: (  5/100) Internal Cycle: (1/1)
--------------------------------------------------------------------------------

 Cartesian coordinates (xcart) [bohr]
 -2.37634534087398E-03 -2.37634534087398E-03  0.00000000000000E+00
  4.56578392496084E+00  4.56578392496084E+00  3.06923017204072E+00
  7.36574664982253E+00  1.76186836173306E+00  3.06923017204072E+00
  1.76186836173306E+00  7.36574664982253E+00  3.06923017204072E+00
  2.79948743588881E+00  2.79948743588881E+00  0.00000000000000E+00
  6.33189019721590E+00  6.33189019721590E+00  0.00000000000000E+00
 Reduced coordinates (xred)
 -2.60100191179186E-04 -2.60100191179187E-04  0.00000000000000E+00
  4.99742714721929E-01  4.99742714721929E-01  5.00000000000000E-01
  8.06208744291832E-01  1.92844031700090E-01  5.00000000000000E-01
  1.92844031700090E-01  8.06208744291832E-01  5.00000000000000E-01
  3.06414730533487E-01  3.06414730533487E-01  0.00000000000000E+00
  6.93049878943841E-01  6.93049878943841E-01  0.00000000000000E+00
 Scale of Primitive Cell (acell) [bohr]
  9.13627987701335E+00  9.13627987701335E+00  6.13846034408143E+00
 Real space primitive translations (rprimd) [bohr]
  9.13627987700700E+00 -1.07720108911327E-05  0.00000000000000E+00
 -1.07720108911327E-05  9.13627987700700E+00  0.00000000000000E+00
  0.00000000000000E+00  0.00000000000000E+00  6.13846034408143E+00
 Unitary Cell Volume (ucvol) [Bohr^3]=  5.12387167785691E+02
 Angles (23,13,12)= [degrees]
  9.00000000000000E+01  9.00000000000000E+01  9.00001351076739E+01
 Lengths [Bohr]
  9.13627987701335E+00  9.13627987701335E+00  6.13846034408143E+00

---SELF-CONSISTENT-FIELD CONVERGENCE--------------------------------------------

 getcut: wavevector=  0.0000  0.0000  0.0000  ngfft=  54  54  36
         ecut(hartree)=     37.500   => boxcut(ratio)=   2.12746

 ITER STEP NUMBER     1
 vtorho : nnsclo_now=2, note that nnsclo,dbl_nnsclo,istep=0 0 1
 Total charge density [el/Bohr^3]
      Maximum=    1.2778E+00  at reduced coord.    0.4444    0.4630    0.5833
      Minimum=    1.1040E-04  at reduced coord.    0.5000    0.5000    0.5000
   Integrated=    5.2000E+01
 ETOT  1  -223.79347754078    -2.238E+02 2.079E-07 1.018E-01
 scprqt: <Vxc>= -4.0905401E-01 hartree

Simple mixing update:
  residual square of the potential :   5.3772050999124424E-002
 scfcv: previous iteration took 36 [s]

 ITER STEP NUMBER     2
 vtorho : nnsclo_now=2, note that nnsclo,dbl_nnsclo,istep=0 0 2
 Total charge density [el/Bohr^3]
      Maximum=    1.2776E+00  at reduced coord.    0.4444    0.4630    0.5833
      Minimum=    1.1032E-04  at reduced coord.    0.0000    0.0000    0.0000
   Integrated=    5.2000E+01
 ETOT  2  -223.79349823645    -2.070E-05 2.239E-08 5.932E-03
 scprqt: <Vxc>= -4.0907328E-01 hartree

 Pulay update with  1 previous iterations:
 mixing of old trial potential : alpha(m:m-4)=  0.815      0.185
 scfcv: previous iteration took 38 [s]

 ITER STEP NUMBER     3
 vtorho : nnsclo_now=1, note that nnsclo,dbl_nnsclo,istep=0 0 3
 Total charge density [el/Bohr^3]
      Maximum=    1.2777E+00  at reduced coord.    0.4444    0.4630    0.5833
      Minimum=    1.1033E-04  at reduced coord.    0.0000    0.0000    0.0000
   Integrated=    5.2000E+01
 ETOT  3  -223.79349992827    -1.692E-06 1.448E-07 1.155E-03
 scprqt: <Vxc>= -4.0905744E-01 hartree

 Pulay update with  2 previous iterations:
 mixing of old trial potential : alpha(m:m-4)=  0.562      0.371      0.666E-01
 scfcv: previous iteration took 19 [s]

 ITER STEP NUMBER     4
 vtorho : nnsclo_now=1, note that nnsclo,dbl_nnsclo,istep=0 0 4
 Total charge density [el/Bohr^3]
      Maximum=    1.2777E+00  at reduced coord.    0.4444    0.4630    0.5833
      Minimum=    1.1037E-04  at reduced coord.    0.0000    0.0000    0.0000
   Integrated=    5.2000E+01
 ETOT  4  -223.79350018080    -2.525E-07 1.290E-08 1.998E-04
 scprqt: <Vxc>= -4.0906548E-01 hartree

 Pulay update with  3 previous iterations:
 mixing of old trial potential : alpha(m:m-4)=  0.690      0.284      0.325E-01 -0.674E-02
 scfcv: previous iteration took 19 [s]

 ITER STEP NUMBER     5
 vtorho : nnsclo_now=1, note that nnsclo,dbl_nnsclo,istep=0 0 5
 Total charge density [el/Bohr^3]
      Maximum=    1.2777E+00  at reduced coord.    0.4444    0.4630    0.5833
      Minimum=    1.1036E-04  at reduced coord.    0.0000    0.0000    0.0000
   Integrated=    5.2000E+01
 ETOT  5  -223.79350021983    -3.904E-08 5.654E-09 4.281E-06
 scprqt: <Vxc>= -4.0906435E-01 hartree

 Pulay update with  4 previous iterations:
 mixing of old trial potential : alpha(m:m-4)=  0.704      0.230      0.792E-01 -0.659E-02 -0.627E-02
 scfcv: previous iteration took 19 [s]

 ITER STEP NUMBER     6
 vtorho : nnsclo_now=1, note that nnsclo,dbl_nnsclo,istep=0 0 6
 Total charge density [el/Bohr^3]
      Maximum=    1.2777E+00  at reduced coord.    0.4444    0.4630    0.5833
      Minimum=    1.1036E-04  at reduced coord.    0.0000    0.0000    0.0000
   Integrated=    5.2000E+01
 ETOT  6  -223.79350022085    -1.014E-09 4.150E-09 8.632E-07
 scprqt: <Vxc>= -4.0906349E-01 hartree

 Pulay update with  5 previous iterations:
 mixing of old trial potential : alpha(m:m-4)=  0.758      0.264     -0.109E-01 -0.410E-02 -0.572E-02
 scfcv: previous iteration took 19 [s]

 ITER STEP NUMBER     7
 vtorho : nnsclo_now=1, note that nnsclo,dbl_nnsclo,istep=0 0 7
 Total charge density [el/Bohr^3]
      Maximum=    1.2777E+00  at reduced coord.    0.4444    0.4630    0.5833
      Minimum=    1.1036E-04  at reduced coord.    0.0000    0.0000    0.0000
   Integrated=    5.2000E+01
 ETOT  7  -223.79350022103    -1.816E-10 4.103E-09 8.473E-08
 scprqt: <Vxc>= -4.0906383E-01 hartree

 Pulay update with  6 previous iterations:
 mixing of old trial potential : alpha(m:m-4)=  0.718      0.318      0.933E-02 -0.340E-01 -0.104E-01
 scfcv: previous iteration took 19 [s]

 ITER STEP NUMBER     8
 vtorho : nnsclo_now=1, note that nnsclo,dbl_nnsclo,istep=0 0 8
 Total charge density [el/Bohr^3]
      Maximum=    1.2777E+00  at reduced coord.    0.4444    0.4630    0.5833
      Minimum=    1.1036E-04  at reduced coord.    0.0000    0.0000    0.0000
   Integrated=    5.2000E+01
 ETOT  8  -223.79350022106    -3.112E-11 3.439E-09 1.529E-09
 scprqt: <Vxc>= -4.0906372E-01 hartree

 Pulay update with  7 previous iterations:
 mixing of old trial potential : alpha(m:m-4)=  0.905      0.877E-01  0.196E-01 -0.684E-02 -0.388E-02
 scfcv: previous iteration took 19 [s]

 ITER STEP NUMBER     9
 vtorho : nnsclo_now=1, note that nnsclo,dbl_nnsclo,istep=0 0 9
 Total charge density [el/Bohr^3]
      Maximum=    1.2777E+00  at reduced coord.    0.4444    0.4630    0.5833
      Minimum=    1.1036E-04  at reduced coord.    0.0000    0.0000    0.0000
   Integrated=    5.2000E+01
 ETOT  9  -223.79350022106     7.674E-13 3.635E-09 2.195E-09
 scprqt: <Vxc>= -4.0906371E-01 hartree

 Pulay update with  7 previous iterations:
 mixing of old trial potential : alpha(m:m-4)=  0.504      0.595     -0.587E-01 -0.374E-01 -0.611E-02
 scfcv: previous iteration took 20 [s]

 ITER STEP NUMBER    10
 vtorho : nnsclo_now=1, note that nnsclo,dbl_nnsclo,istep=0 0 10
 Total charge density [el/Bohr^3]
      Maximum=    1.2777E+00  at reduced coord.    0.4444    0.4630    0.5833
      Minimum=    1.1036E-04  at reduced coord.    0.0000    0.0000    0.0000
   Integrated=    5.2000E+01
 ETOT 10  -223.79350022106     2.473E-12 3.259E-09 2.722E-11
 scprqt: <Vxc>= -4.0906371E-01 hartree

 Pulay update with  7 previous iterations:
 mixing of old trial potential : alpha(m:m-4)=  0.935      0.826E-01 -0.123E-01 -0.249E-02 -0.186E-02
 scfcv: previous iteration took 21 [s]

 ITER STEP NUMBER    11
 vtorho : nnsclo_now=1, note that nnsclo,dbl_nnsclo,istep=0 0 11
 Total charge density [el/Bohr^3]
      Maximum=    1.2777E+00  at reduced coord.    0.4444    0.4630    0.5833
      Minimum=    1.1036E-04  at reduced coord.    0.0000    0.0000    0.0000
   Integrated=    5.2000E+01
 ETOT 11  -223.79350022106    -3.411E-13 3.468E-09 1.232E-12
 scprqt: <Vxc>= -4.0906371E-01 hartree

 Pulay update with  7 previous iterations:
 mixing of old trial potential : alpha(m:m-4)=  0.982      0.567E-01 -0.903E-02 -0.318E-01  0.128E-02
 scfcv: previous iteration took 21 [s]

 ITER STEP NUMBER    12
 vtorho : nnsclo_now=1, note that nnsclo,dbl_nnsclo,istep=0 0 12
 Total charge density [el/Bohr^3]
      Maximum=    1.2777E+00  at reduced coord.    0.4444    0.4630    0.5833
      Minimum=    1.1036E-04  at reduced coord.    0.0000    0.0000    0.0000
   Integrated=    5.2000E+01
 ETOT 12  -223.79350022106    -1.705E-13 3.200E-09 1.889E-13
 scprqt: <Vxc>= -4.0906371E-01 hartree

 At SCF step   12, etot is converged : 
  for the second time, diff in etot=  1.705E-13 < toldfe=  5.000E-13

 Cartesian components of stress tensor (hartree/bohr^3)
  sigma(1 1)=  1.72829787E-06  sigma(3 2)=  0.00000000E+00
  sigma(2 2)=  1.72829787E-06  sigma(3 1)=  0.00000000E+00
  sigma(3 3)=  1.38037892E-06  sigma(2 1)= -1.40897076E-08

 fftdatar_write: About to write data to: relax_xo_TIM5_DEN with iomode IO_MODE_FORTRAN
 IO operation completed. cpu_time:       0.0 [s], walltime:       0.0 [s]
 Write iteration in HIST netCDF file

---OUTPUT-----------------------------------------------------------------------

 Cartesian coordinates (xcart) [bohr]
 -2.37634534087398E-03 -2.37634534087398E-03  0.00000000000000E+00
  4.56578392496084E+00  4.56578392496084E+00  3.06923017204072E+00
  7.36574664982253E+00  1.76186836173306E+00  3.06923017204072E+00
  1.76186836173306E+00  7.36574664982253E+00  3.06923017204072E+00
  2.79948743588881E+00  2.79948743588881E+00  0.00000000000000E+00
  6.33189019721590E+00  6.33189019721590E+00  0.00000000000000E+00
 Reduced coordinates (xred)
 -2.60100191179186E-04 -2.60100191179187E-04  0.00000000000000E+00
  4.99742714721929E-01  4.99742714721929E-01  5.00000000000000E-01
  8.06208744291832E-01  1.92844031700090E-01  5.00000000000000E-01
  1.92844031700090E-01  8.06208744291832E-01  5.00000000000000E-01
  3.06414730533487E-01  3.06414730533487E-01  0.00000000000000E+00
  6.93049878943841E-01  6.93049878943841E-01  0.00000000000000E+00
 Cartesian forces (fcart) [Ha/bohr]; max,rms= 1.35653E-04 6.41470E-05 (free atoms)
 -3.10375920226199E-05 -3.10375920226199E-05 -0.00000000000000E+00
  1.72340727142524E-05  1.72340727142524E-05 -0.00000000000000E+00
  1.35653156320517E-04 -1.55843656506070E-05 -0.00000000000000E+00
 -1.55843656506070E-05  1.35653156320517E-04 -0.00000000000000E+00
  2.26378534562218E-05  2.26378534562218E-05 -0.00000000000000E+00
 -1.28903124817764E-04 -1.28903124817764E-04 -0.00000000000000E+00
 Reduced forces (fred)
  2.83567793089736E-04  2.83567793089736E-04  0.00000000000000E+00
 -1.57455126092480E-04 -1.57455126092480E-04 -0.00000000000000E+00
 -1.23936537021858E-03  1.42384587546837E-04 -0.00000000000000E+00
  1.42384587546837E-04 -1.23936537021858E-03 -0.00000000000000E+00
 -2.06825521135509E-04 -2.06825521135509E-04 -0.00000000000000E+00
  1.17769363681000E-03  1.17769363681000E-03  0.00000000000000E+00
 Scale of Primitive Cell (acell) [bohr]
  9.13627987701335E+00  9.13627987701335E+00  6.13846034408143E+00
 Real space primitive translations (rprimd) [bohr]
  9.13627987700700E+00 -1.07720108911327E-05  0.00000000000000E+00
 -1.07720108911327E-05  9.13627987700700E+00  0.00000000000000E+00
  0.00000000000000E+00  0.00000000000000E+00  6.13846034408143E+00
 Unitary Cell Volume (ucvol) [Bohr^3]=  5.12387167785691E+02
 Angles (23,13,12)= [degrees]
  9.00000000000000E+01  9.00000000000000E+01  9.00001351076739E+01
 Lengths [Bohr]
  9.13627987701335E+00  9.13627987701335E+00  6.13846034408143E+00
 Stress tensor in cartesian coordinates (strten) [Ha/bohr^3]
  1.72829786921139E-06 -1.40897076129255E-08  0.00000000000000E+00
 -1.40897076129255E-08  1.72829786921139E-06  0.00000000000000E+00
  0.00000000000000E+00  0.00000000000000E+00  1.38037892046319E-06
 Total energy (etotal) [Ha]= -2.23793500221058E+02

 Difference of energy with previous step (new-old):
           Absolute (Ha)=-2.22121E-06
           Relative     =-9.92528E-09
 fconv : at Broyd/MD step   5, gradients have not converged yet. 
  max grad (force/stress) = 1.7283E-04 > tolmxf= 5.0000E-10 ha/bohr (free atoms)

 Geometry Optimization Precondition:           0
 EXIT:           1           1
 mover: previous time step took 04:44

--- Iteration: (  6/100) Internal Cycle: (1/1)
--------------------------------------------------------------------------------

 Cartesian coordinates (xcart) [bohr]
 -2.54047664865994E-03 -2.54047664865994E-03  0.00000000000000E+00
  4.56535809385973E+00  4.56535809385973E+00  3.06920245744521E+00
  7.36555217387982E+00  1.76156107052227E+00  3.06920245744521E+00
  1.76156107052227E+00  7.36555217387982E+00  3.06920245744521E+00
  2.79957481842343E+00  2.79957481842343E+00  0.00000000000000E+00
  6.33116789381619E+00  6.33116789381619E+00  0.00000000000000E+00
 Reduced coordinates (xred)
 -2.78086036672630E-04 -2.78086036672630E-04  0.00000000000000E+00
  4.99733913705696E-01  4.99733913705696E-01  5.00000000000000E-01
  8.06248778170118E-01  1.92824663318454E-01  5.00000000000000E-01
  1.92824663318454E-01  8.06248778170118E-01  5.00000000000000E-01
  3.06447479465921E-01  3.06447479465921E-01  0.00000000000000E+00
  6.93023251376483E-01  6.93023251376483E-01  0.00000000000000E+00
 Scale of Primitive Cell (acell) [bohr]
  9.13558385949625E+00  9.13558385949625E+00  6.13840491489043E+00
 Real space primitive translations (rprimd) [bohr]
  9.13558385949431E+00 -5.96763971102504E-06  0.00000000000000E+00
 -5.96763971102504E-06  9.13558385949431E+00  0.00000000000000E+00
  0.00000000000000E+00  0.00000000000000E+00  6.13840491489043E+00
 Unitary Cell Volume (ucvol) [Bohr^3]=  5.12304475629823E+02
 Angles (23,13,12)= [degrees]
  9.00000000000000E+01  9.00000000000000E+01  9.00000748546725E+01
 Lengths [Bohr]
  9.13558385949625E+00  9.13558385949625E+00  6.13840491489043E+00

---SELF-CONSISTENT-FIELD CONVERGENCE--------------------------------------------

 getcut: wavevector=  0.0000  0.0000  0.0000  ngfft=  54  54  36
         ecut(hartree)=     37.500   => boxcut(ratio)=   2.12748

 ITER STEP NUMBER     1
 vtorho : nnsclo_now=2, note that nnsclo,dbl_nnsclo,istep=0 0 1
 Total charge density [el/Bohr^3]
      Maximum=    1.2778E+00  at reduced coord.    0.4444    0.4630    0.5833
      Minimum=    1.1042E-04  at reduced coord.    0.5000    0.5000    0.5000
   Integrated=    5.2000E+01
 ETOT  1  -223.79349818393    -2.238E+02 7.884E-05 1.317E-02
 scprqt: <Vxc>= -4.0905394E-01 hartree

Simple mixing update:
  residual square of the potential :   5.5632820792841436E-003
 scfcv: previous iteration took 39 [s]

 ITER STEP NUMBER     2
 vtorho : nnsclo_now=2, note that nnsclo,dbl_nnsclo,istep=0 0 2
 Total charge density [el/Bohr^3]
      Maximum=    1.2777E+00  at reduced coord.    0.4444    0.4630    0.5833
      Minimum=    1.1034E-04  at reduced coord.    0.0000    0.0000    0.0000
   Integrated=    5.2000E+01
 ETOT  2  -223.79349944353    -1.260E-06 6.413E-08 2.795E-03
 scprqt: <Vxc>= -4.0911457E-01 hartree

 Pulay update with  1 previous iterations:
 mixing of old trial potential : alpha(m:m-4)=  0.718      0.282
 scfcv: previous iteration took 41 [s]

 ITER STEP NUMBER     3
 vtorho : nnsclo_now=1, note that nnsclo,dbl_nnsclo,istep=0 0 3
 Total charge density [el/Bohr^3]
      Maximum=    1.2777E+00  at reduced coord.    0.4444    0.4630    0.5833
      Minimum=    1.1032E-04  at reduced coord.    0.5000    0.5000    0.5000
   Integrated=    5.2000E+01
 ETOT  3  -223.79350007655    -6.330E-07 4.218E-08 1.073E-03
 scprqt: <Vxc>= -4.0907856E-01 hartree

 Pulay update with  2 previous iterations:
 mixing of old trial potential : alpha(m:m-4)=  0.623      0.368      0.933E-02
 scfcv: previous iteration took 21 [s]

 ITER STEP NUMBER     4
 vtorho : nnsclo_now=1, note that nnsclo,dbl_nnsclo,istep=0 0 4
 Total charge density [el/Bohr^3]
      Maximum=    1.2777E+00  at reduced coord.    0.4444    0.4630    0.5833
      Minimum=    1.1039E-04  at reduced coord.    0.0000    0.0000    0.0000
   Integrated=    5.2000E+01
 ETOT  4  -223.79350043266    -3.561E-07 8.456E-09 3.051E-05
 scprqt: <Vxc>= -4.0909387E-01 hartree

 Pulay update with  3 previous iterations:
 mixing of old trial potential : alpha(m:m-4)=   1.08      0.920E-02 -0.532E-01 -0.409E-01
 scfcv: previous iteration took 21 [s]

 ITER STEP NUMBER     5
 vtorho : nnsclo_now=1, note that nnsclo,dbl_nnsclo,istep=0 0 5
 Total charge density [el/Bohr^3]
      Maximum=    1.2777E+00  at reduced coord.    0.4444    0.4630    0.5833
      Minimum=    1.1037E-04  at reduced coord.    0.0000    0.0000    0.0000
   Integrated=    5.2000E+01
 ETOT  5  -223.79350043497    -2.303E-09 9.978E-08 7.557E-06
 scprqt: <Vxc>= -4.0909480E-01 hartree

 Pulay update with  4 previous iterations:
 mixing of old trial potential : alpha(m:m-4)=  0.605      0.492     -0.340E-01 -0.446E-01 -0.186E-01
 scfcv: previous iteration took 21 [s]

 ITER STEP NUMBER     6
 vtorho : nnsclo_now=1, note that nnsclo,dbl_nnsclo,istep=0 0 6
 Total charge density [el/Bohr^3]
      Maximum=    1.2777E+00  at reduced coord.    0.4444    0.4630    0.5833
      Minimum=    1.1037E-04  at reduced coord.    0.0000    0.0000    0.0000
   Integrated=    5.2000E+01
