
     Program PWSCF v.6.2.2 starts on 10May2018 at  5: 4:42 

     This program is part of the open-source Quantum ESPRESSO suite
     for quantum simulation of materials; please cite
         "P. Giannozzi et al., J. Phys.:Condens. Matter 21 395502 (2009);
         "P. Giannozzi et al., J. Phys.:Condens. Matter 29 465901 (2017);
          URL http://www.quantum-espresso.org", 
     in publications or presentations arising from this work. More details at
     http://www.quantum-espresso.org/quote

     Parallel version (MPI), running on     2 processors

     MPI processes distributed on     1 nodes
     R & G space division:  proc/nbgrp/npool/nimage =       2
     Reading input from QE_relax.in

     Current dimensions of program PWSCF are:
     Max number of different atomic species (ntypx) = 10
     Max number of k-points (npk) =  40000
     Max angular momentum in pseudopotentials (lmaxx) =  3

     Subspace diagonalization in iterative solution of the eigenvalue problem:
     a serial algorithm will be used

 
     Parallelization info
     --------------------
     sticks:   dense  smooth     PW     G-vecs:    dense   smooth      PW
     Min         996     996    288                22220    22220    3536
     Max         997     997    289                22221    22221    3539
     Sum        1993    1993    577                44441    44441    7075
 


     bravais-lattice index     =            6
     lattice parameter (alat)  =       9.1100  a.u.
     unit-cell volume          =     506.5589 (a.u.)^3
     number of atoms/cell      =            6
     number of atomic types    =            2
     number of electrons       =        52.00
     number of Kohn-Sham states=           26
     kinetic-energy cutoff     =      75.0000  Ry
     charge density cutoff     =     300.0000  Ry
     convergence threshold     =      1.0E-12
     mixing beta               =       0.7000
     number of iterations used =            8  plain     mixing
     Exchange-correlation      = PBE ( 1  4  3  4 0 0)
     nstep                     =           50


     celldm(1)=   9.110000  celldm(2)=   0.000000  celldm(3)=   0.670000
     celldm(4)=   0.000000  celldm(5)=   0.000000  celldm(6)=   0.000000

     crystal axes: (cart. coord. in units of alat)
               a(1) = (   1.000000   0.000000   0.000000 )  
               a(2) = (   0.000000   1.000000   0.000000 )  
               a(3) = (   0.000000   0.000000   0.670000 )  

     reciprocal axes: (cart. coord. in units 2 pi/alat)
               b(1) = (  1.000000  0.000000  0.000000 )  
               b(2) = (  0.000000  1.000000  0.000000 )  
               b(3) = (  0.000000  0.000000  1.492537 )  


     PseudoPot. # 1 for Sn read from file:
     ../Pseudo_potentials/Sn_PBE.upf
     MD5 check sum: 78e6386ae56e929f0568ae8bf606a80c
     Pseudo is Norm-conserving + core correction, Zval = 14.0
     Generated using ONCVPSP code by D. R. Hamann
     Using radial grid of 1628 points,  6 beta functions with: 
                l(1) =   0
                l(2) =   0
                l(3) =   1
                l(4) =   1
                l(5) =   2
                l(6) =   2

     PseudoPot. # 2 for O  read from file:
     ../Pseudo_potentials/O_PBE.upf
     MD5 check sum: 3e3f909f7470e8921608ab6b1f57bbae
     Pseudo is Norm-conserving + core correction, Zval =  6.0
     Generated using ONCVPSP code by D. R. Hamann
     Using radial grid of  936 points,  5 beta functions with: 
                l(1) =   0
                l(2) =   0
                l(3) =   1
                l(4) =   1
                l(5) =   2

     atomic species   valence    mass     pseudopotential
        Sn            14.00   118.71000     Sn( 1.00)
        O              6.00    15.99900     O ( 1.00)

      4 Sym. Ops. (no inversion) found



   Cartesian axes

     site n.     atom                  positions (alat units)
         1           Sn  tau(   1) = (   0.0000000   0.0000000   0.0000000  )
         2           Sn  tau(   2) = (   0.5000000   0.5000000   0.3350000  )
         3           O   tau(   3) = (   0.8060000   0.1930000   0.3350000  )
         4           O   tau(   4) = (   0.1930000   0.8060000   0.3350000  )
         5           O   tau(   5) = (   0.3060000   0.3060000   0.0000000  )
         6           O   tau(   6) = (   0.6930000   0.6930000   0.0000000  )

     number of k points=    21
                       cart. coord. in units 2pi/alat
        k(    1) = (   0.0000000   0.0000000   0.0000000), wk =   0.0312500
        k(    2) = (   0.0000000   0.0000000   0.3731343), wk =   0.0625000
        k(    3) = (   0.0000000   0.0000000  -0.7462687), wk =   0.0312500
        k(    4) = (   0.0000000   0.2500000   0.0000000), wk =   0.1250000
        k(    5) = (   0.0000000   0.2500000   0.3731343), wk =   0.2500000
        k(    6) = (   0.0000000   0.2500000  -0.7462687), wk =   0.1250000
        k(    7) = (   0.0000000  -0.5000000   0.0000000), wk =   0.0625000
        k(    8) = (   0.0000000  -0.5000000   0.3731343), wk =   0.1250000
        k(    9) = (   0.0000000  -0.5000000  -0.7462687), wk =   0.0625000
        k(   10) = (   0.2500000   0.2500000   0.0000000), wk =   0.0625000
        k(   11) = (   0.2500000   0.2500000   0.3731343), wk =   0.1250000
        k(   12) = (   0.2500000   0.2500000  -0.7462687), wk =   0.0625000
        k(   13) = (   0.2500000  -0.5000000   0.0000000), wk =   0.1250000
        k(   14) = (   0.2500000  -0.5000000   0.3731343), wk =   0.2500000
        k(   15) = (   0.2500000  -0.5000000  -0.7462687), wk =   0.1250000
        k(   16) = (  -0.5000000  -0.5000000   0.0000000), wk =   0.0312500
        k(   17) = (  -0.5000000  -0.5000000   0.3731343), wk =   0.0625000
        k(   18) = (  -0.5000000  -0.5000000  -0.7462687), wk =   0.0312500
        k(   19) = (   0.2500000  -0.2500000   0.0000000), wk =   0.0625000
        k(   20) = (   0.2500000  -0.2500000   0.3731343), wk =   0.1250000
        k(   21) = (   0.2500000  -0.2500000  -0.7462687), wk =   0.0625000

     Dense  grid:    44441 G-vectors     FFT dimensions: (  54,  54,  36)

     Estimated max dynamical RAM per process >      58.90 MB

     Estimated total dynamical RAM >     117.81 MB

     Check: negative/imaginary core charge=   -0.000002    0.000000

     Initial potential from superposition of free atoms

     starting charge   51.99690, renormalised to   52.00000
     Starting wfc are   34 randomized atomic wfcs

     total cpu time spent up to now is        5.4 secs

     Self-consistent Calculation

     iteration #  1     ecut=    75.00 Ry     beta= 0.70
     Davidson diagonalization with overlap
     ethr =  1.00E-02,  avg # of iterations =  2.0

     total cpu time spent up to now is       11.9 secs

     total energy              =    -446.85044198 Ry
     Harris-Foulkes estimate   =    -448.03130062 Ry
     estimated scf accuracy    <       1.60369318 Ry

     iteration #  2     ecut=    75.00 Ry     beta= 0.70
     Davidson diagonalization with overlap
     ethr =  3.08E-03,  avg # of iterations =  3.1

     total cpu time spent up to now is       20.0 secs

     total energy              =    -447.26151844 Ry
     Harris-Foulkes estimate   =    -448.05990782 Ry
     estimated scf accuracy    <       1.64507199 Ry

     iteration #  3     ecut=    75.00 Ry     beta= 0.70
     Davidson diagonalization with overlap
     ethr =  3.08E-03,  avg # of iterations =  3.0

     total cpu time spent up to now is       27.7 secs

     total energy              =    -447.58348399 Ry
     Harris-Foulkes estimate   =    -447.58406503 Ry
     estimated scf accuracy    <       0.00569991 Ry

     iteration #  4     ecut=    75.00 Ry     beta= 0.70
     Davidson diagonalization with overlap
     ethr =  1.10E-05,  avg # of iterations =  2.9

     total cpu time spent up to now is       36.3 secs

     total energy              =    -447.58634986 Ry
     Harris-Foulkes estimate   =    -447.58659800 Ry
     estimated scf accuracy    <       0.00051437 Ry

     iteration #  5     ecut=    75.00 Ry     beta= 0.70
     Davidson diagonalization with overlap
     ethr =  9.89E-07,  avg # of iterations =  2.0

     total cpu time spent up to now is       42.7 secs

     total energy              =    -447.58638289 Ry
     Harris-Foulkes estimate   =    -447.58639357 Ry
     estimated scf accuracy    <       0.00003472 Ry

     iteration #  6     ecut=    75.00 Ry     beta= 0.70
     Davidson diagonalization with overlap
     ethr =  6.68E-08,  avg # of iterations =  3.5

     total cpu time spent up to now is       51.6 secs

     total energy              =    -447.58639546 Ry
     Harris-Foulkes estimate   =    -447.58639799 Ry
     estimated scf accuracy    <       0.00000720 Ry

     iteration #  7     ecut=    75.00 Ry     beta= 0.70
     Davidson diagonalization with overlap
     ethr =  1.38E-08,  avg # of iterations =  3.4

     total cpu time spent up to now is       59.2 secs

     total energy              =    -447.58808263 Ry
     Harris-Foulkes estimate   =    -447.58809216 Ry
     estimated scf accuracy    <       0.00005822 Ry

     iteration #  8     ecut=    75.00 Ry     beta= 0.70
     Davidson diagonalization with overlap
     ethr =  1.38E-08,  avg # of iterations =  2.0

     total cpu time spent up to now is       66.0 secs

     total energy              =    -447.58807608 Ry
     Harris-Foulkes estimate   =    -447.58808319 Ry
     estimated scf accuracy    <       0.00003243 Ry

     iteration #  9     ecut=    75.00 Ry     beta= 0.70
     Davidson diagonalization with overlap
     ethr =  1.38E-08,  avg # of iterations =  3.0

     total cpu time spent up to now is       73.4 secs

     total energy              =    -447.58807077 Ry
     Harris-Foulkes estimate   =    -447.58807688 Ry
     estimated scf accuracy    <       0.00001292 Ry

     iteration # 10     ecut=    75.00 Ry     beta= 0.70
     Davidson diagonalization with overlap
     ethr =  1.38E-08,  avg # of iterations =  3.0

     total cpu time spent up to now is       81.2 secs

     total energy              =    -447.58807251 Ry
     Harris-Foulkes estimate   =    -447.58807261 Ry
     estimated scf accuracy    <       0.00000060 Ry

     iteration # 11     ecut=    75.00 Ry     beta= 0.70
     Davidson diagonalization with overlap
     ethr =  1.15E-09,  avg # of iterations =  3.0

     total cpu time spent up to now is       88.6 secs

     total energy              =    -447.58807244 Ry
     Harris-Foulkes estimate   =    -447.58807262 Ry
     estimated scf accuracy    <       0.00000038 Ry

     iteration # 12     ecut=    75.00 Ry     beta= 0.70
     Davidson diagonalization with overlap
     ethr =  7.40E-10,  avg # of iterations =  2.7

     total cpu time spent up to now is       96.2 secs

     total energy              =    -447.58807250 Ry
     Harris-Foulkes estimate   =    -447.58807250 Ry
     estimated scf accuracy    <          6.0E-09 Ry

     iteration # 13     ecut=    75.00 Ry     beta= 0.70
     Davidson diagonalization with overlap
     ethr =  1.15E-11,  avg # of iterations =  3.7

     total cpu time spent up to now is      103.9 secs

     total energy              =    -447.58807249 Ry
     Harris-Foulkes estimate   =    -447.58807250 Ry
     estimated scf accuracy    <          9.9E-09 Ry

     iteration # 14     ecut=    75.00 Ry     beta= 0.70
     Davidson diagonalization with overlap
     ethr =  1.15E-11,  avg # of iterations =  4.0

     total cpu time spent up to now is      112.3 secs

     total energy              =    -447.58807250 Ry
     Harris-Foulkes estimate   =    -447.58807250 Ry
     estimated scf accuracy    <          1.2E-09 Ry

     iteration # 15     ecut=    75.00 Ry     beta= 0.70
     Davidson diagonalization with overlap
     ethr =  2.33E-12,  avg # of iterations =  1.0

     total cpu time spent up to now is      118.2 secs

     total energy              =    -447.58807250 Ry
     Harris-Foulkes estimate   =    -447.58807250 Ry
     estimated scf accuracy    <          7.4E-10 Ry

     iteration # 16     ecut=    75.00 Ry     beta= 0.70
     Davidson diagonalization with overlap
     ethr =  1.42E-12,  avg # of iterations =  3.0

     total cpu time spent up to now is      125.9 secs

     total energy              =    -447.58807250 Ry
     Harris-Foulkes estimate   =    -447.58807250 Ry
     estimated scf accuracy    <          9.5E-12 Ry

     iteration # 17     ecut=    75.00 Ry     beta= 0.70
     Davidson diagonalization with overlap
     ethr =  1.00E-13,  avg # of iterations =  2.3

     total cpu time spent up to now is      132.5 secs

     End of self-consistent calculation

          k = 0.0000 0.0000 0.0000 (  5577 PWs)   bands (ev):

   -12.0167 -11.3765 -11.1623 -11.1341 -11.1341 -11.0487 -11.0273 -10.9578
   -10.9478 -10.9478  -9.5883  -7.8462  -7.8461  -6.3290   1.0695   5.1466
     5.1466   5.2831   6.1524   7.0635   7.1067   7.8002   7.8003   8.3509
     8.3509   9.0689

          k = 0.0000 0.0000 0.3731 (  5565 PWs)   bands (ev):

   -11.7781 -11.5041 -11.5040 -11.1857 -11.0760 -11.0634 -11.0091 -10.9984
   -10.9984 -10.9601  -9.2161  -7.1778  -7.1777  -6.7549   1.1177   4.4928
     4.9409   5.5974   5.5975   6.3056   6.3057   6.5037   6.5440   8.2665
     8.2666   8.6199

          k = 0.0000 0.0000-0.7463 (  5544 PWs)   bands (ev):

   -11.7987 -11.7986 -11.3666 -11.3665 -11.0417 -11.0416 -10.9766 -10.9766
   -10.9495 -10.9494  -8.0072  -8.0072  -6.5547  -6.5547   1.9988   1.9989
     4.9730   4.9731   5.3460   5.3461   6.4719   6.4720   7.5494   7.5495
     7.8869   7.8869

          k = 0.0000 0.2500 0.0000 (  5563 PWs)   bands (ev):

   -11.9347 -11.4683 -11.1593 -11.1308 -11.1306 -11.1034 -11.0159 -10.9666
   -10.9518 -10.9517  -9.3985  -8.1998  -7.5563  -6.4602   1.4787   4.1599
     5.4248   5.5002   6.4703   6.7510   7.2864   7.4443   7.8203   7.8526
     8.3813   8.8021

          k = 0.0000 0.2500 0.3731 (  5568 PWs)   bands (ev):

   -11.7796 -11.6023 -11.4244 -11.1847 -11.0729 -11.0588 -11.0056 -10.9925
   -10.9912 -10.9645  -9.0460  -7.7395  -7.0010  -6.5562   1.5233   3.9719
     4.3611   4.7068   6.0143   6.0908   6.5785   7.1278   7.2986   8.1889
     8.2138   8.5913

          k = 0.0000 0.2500-0.7463 (  5540 PWs)   bands (ev):

   -11.8879 -11.8879 -11.2410 -11.2410 -11.0450 -11.0450 -10.9742 -10.9741
   -10.9437 -10.9436  -8.1200  -8.1200  -6.4649  -6.4649   2.1007   2.1008
     4.2959   4.2959   5.0738   5.0738   7.2603   7.2604   7.7460   7.7461
     7.9902   7.9902

          k = 0.0000-0.5000 0.0000 (  5570 PWs)   bands (ev):

   -11.7149 -11.7143 -11.1472 -11.1464 -11.1271 -11.1270 -10.9900 -10.9899
   -10.9559 -10.9558  -8.8707  -8.8697  -6.9459  -6.9411   2.6212   2.6281
     6.0700   6.0731   6.1826   6.1909   7.1675   7.1680   7.8559   7.8609
     8.4704   8.4749

          k = 0.0000-0.5000 0.3731 (  5566 PWs)   bands (ev):

   -11.7298 -11.7277 -11.2776 -11.2731 -11.0649 -11.0646 -10.9954 -10.9953
   -10.9766 -10.9765  -8.5102  -8.5070  -6.6686  -6.6685   2.6209   2.6244
     4.1915   4.1974   5.9863   5.9917   7.5248   7.5273   7.7344   7.7352
     8.3009   8.3044

          k = 0.0000-0.5000-0.7463 (  5540 PWs)   bands (ev):

   -11.9515 -11.9514 -11.1464 -11.1463 -11.0411 -11.0411 -10.9719 -10.9718
   -10.9376 -10.9375  -8.2261  -8.2261  -6.3840  -6.3840   2.2585   2.2586
     3.6936   3.6936   5.0162   5.0162   7.3951   7.3952   8.0670   8.0670
     8.3036   8.3036

          k = 0.2500 0.2500 0.0000 (  5560 PWs)   bands (ev):

   -11.8884 -11.5598 -11.1540 -11.1351 -11.1271 -11.1218 -11.0073 -10.9723
   -10.9558 -10.9473  -9.1840  -7.9214  -7.8990  -6.6704   1.9132   4.0809
     5.1974   5.6750   6.5714   6.6746   6.7998   7.4647   7.7646   7.8617
     8.2911   8.6191

          k = 0.2500 0.2500 0.3731 (  5568 PWs)   bands (ev):

   -11.7629 -11.5449 -11.5079 -11.2217 -11.0748 -11.0515 -11.0051 -10.9924
   -10.9894 -10.9683  -8.8381  -7.7091  -7.2222  -6.5821   1.8030   3.1770
     4.5122   5.5598   5.6916   5.7439   6.3396   7.3791   7.7466   7.9975
     8.2665   8.5885

          k = 0.2500 0.2500-0.7463 (  5534 PWs)   bands (ev):

   -11.9513 -11.8038 -11.3749 -11.1372 -11.0479 -11.0450 -10.9740 -10.9717
   -10.9436 -10.9399  -8.2269  -7.9317  -6.5906  -6.3818   1.6069   2.2118
     4.0174   4.5252   4.5783   6.2031   6.4921   7.8644   7.8827   7.9177
     7.9945   8.1044

          k = 0.2500-0.5000 0.0000 (  5564 PWs)   bands (ev):

   -11.7477 -11.7473 -11.1420 -11.1415 -11.1318 -11.1317 -10.9883 -10.9883
   -10.9512 -10.9512  -8.6092  -8.6076  -7.2623  -7.2583   3.0113   3.0171
     5.8189   5.8251   6.1142   6.1165   7.1825   7.1826   7.7937   7.7973
     8.3380   8.3409

          k = 0.2500-0.5000 0.3731 (  5552 PWs)   bands (ev):

   -11.6805 -11.6782 -11.3633 -11.3594 -11.0642 -11.0640 -10.9982 -10.9982
   -10.9782 -10.9781  -8.2764  -8.2740  -6.9045  -6.9043   2.4342   2.4357
     4.8413   4.8448   5.7000   5.7028   7.2476   7.2486   7.8555   7.8584
     8.3733   8.3770

          k = 0.2500-0.5000-0.7463 (  5540 PWs)   bands (ev):

   -11.8922 -11.8922 -11.2496 -11.2495 -11.0456 -11.0456 -10.9718 -10.9718
   -10.9414 -10.9413  -8.0521  -8.0521  -6.4909  -6.4909   1.6547   1.6548
     4.3135   4.3136   5.1856   5.1857   7.5633   7.5634   8.0612   8.0614
     8.1727   8.1728

          k =-0.5000-0.5000 0.0000 (  5572 PWs)   bands (ev):

   -11.7783 -11.7782 -11.1375 -11.1375 -11.1362 -11.1362 -10.9867 -10.9866
   -10.9468 -10.9468  -7.9743  -7.9698  -7.9520  -7.9475   3.5375   3.5375
     5.3132   5.3133   6.1624   6.1625   7.2100   7.2100   7.7296   7.7297
     8.2109   8.2110

          k =-0.5000-0.5000 0.3731 (  5520 PWs)   bands (ev):

   -11.5649 -11.5648 -11.5115 -11.5114 -11.0634 -11.0634 -10.9997 -10.9996
   -10.9792 -10.9792  -7.9182  -7.9181  -7.2664  -7.2663   2.3194   2.3194
     5.3839   5.3840   5.9208   5.9209   6.4346   6.4347   8.2243   8.2247
     8.2537   8.2541

          k =-0.5000-0.5000-0.7463 (  5528 PWs)   bands (ev):

   -11.8087 -11.8086 -11.3797 -11.3796 -11.0436 -11.0435 -10.9718 -10.9717
   -10.9452 -10.9451  -7.8542  -7.8542  -6.6261  -6.6260   1.2909   1.2910
     4.2660   4.2660   6.5336   6.5336   6.6252   6.6252   8.1572   8.1574
     8.2974   8.2975

          k = 0.2500-0.2500 0.0000 (  5560 PWs)   bands (ev):

   -11.8884 -11.5597 -11.1540 -11.1352 -11.1271 -11.1218 -11.0073 -10.9723
   -10.9558 -10.9473  -9.1840  -7.9237  -7.8967  -6.6704   1.9132   4.0809
     5.1974   5.6749   6.5714   6.6746   6.7999   7.4646   7.7646   7.8617
     8.2911   8.6191

          k = 0.2500-0.2500 0.3731 (  5568 PWs)   bands (ev):

   -11.7629 -11.5449 -11.5080 -11.2217 -11.0748 -11.0515 -11.0051 -10.9924
   -10.9894 -10.9683  -8.8381  -7.7092  -7.2221  -6.5821   1.8030   3.1769
     4.5122   5.5598   5.6916   5.7439   6.3396   7.3791   7.7466   7.9975
     8.2666   8.5884

          k = 0.2500-0.2500-0.7463 (  5534 PWs)   bands (ev):

   -11.9512 -11.8039 -11.3749 -11.1372 -11.0479 -11.0450 -10.9740 -10.9718
   -10.9436 -10.9398  -8.2269  -7.9317  -6.5906  -6.3818   1.6070   2.2117
     4.0174   4.5252   4.5783   6.2030   6.4921   7.8640   7.8828   7.9181
     7.9946   8.1044

     highest occupied level (ev):     9.0689

!    total energy              =    -447.58807250 Ry
     Harris-Foulkes estimate   =    -447.58807250 Ry
     estimated scf accuracy    <          9.7E-13 Ry

     The total energy is the sum of the following terms:

     one-electron contribution =    -124.05131983 Ry
     hartree contribution      =     101.06953251 Ry
     xc contribution           =    -122.12494937 Ry
     ewald contribution        =    -302.48133580 Ry

     convergence has been achieved in  17 iterations

     Forces acting on atoms (cartesian axes, Ry/au):

     atom    1 type  1   force =    -0.00105965   -0.00105965    0.00000000
     atom    2 type  1   force =    -0.00135191   -0.00135191    0.00000000
     atom    3 type  2   force =    -0.00045916    0.00042508    0.00000000
     atom    4 type  2   force =     0.00042508   -0.00045916   -0.00000000
     atom    5 type  2   force =     0.00078603    0.00078603    0.00000000
     atom    6 type  2   force =     0.00165961    0.00165961    0.00000000

     Total force =     0.003664     Total SCF correction =     0.000003


     Computing stress (Cartesian axis) and pressure

          total   stress  (Ry/bohr**3)                   (kbar)     P=   16.11
   0.00008114   0.00000011   0.00000000         11.94      0.02      0.00
   0.00000011   0.00008114  -0.00000000          0.02     11.94     -0.00
   0.00000000   0.00000000   0.00016635          0.00      0.00     24.47


     BFGS Geometry Optimization

     number of scf cycles    =   1
     number of bfgs steps    =   0

     enthalpy new            =    -447.5880724958 Ry

     new trust radius        =       0.0187205457 bohr
     new conv_thr            =            1.0E-12 Ry

     new unit-cell volume =    510.73143 a.u.^3 (    75.68259 Ang^3 )
     density =      6.61332 g/cm^3

CELL_PARAMETERS (alat=  9.11000000)
   1.002028592   0.000000000   0.000000000
   0.000000000   1.002028592   0.000000000
   0.000000000   0.000000000   0.672786431

ATOMIC_POSITIONS (crystal)
Sn      -0.000116318  -0.000116318   0.000000000
Sn       0.499851601   0.499851601   0.500000000
O        0.805949598   0.193046661   0.500000000
O        0.193046661   0.805949598   0.500000000
O        0.306086282   0.306086282   0.000000000
O        0.693182175   0.693182175   0.000000000



     Writing output data file SnO2.save
     NEW-OLD atomic charge density approx. for the potential

     Check: negative/imaginary core charge=   -0.000002    0.000000
     extrapolated charge   52.42480, renormalised to   52.00000

     total cpu time spent up to now is      142.6 secs

     Self-consistent Calculation

     iteration #  1     ecut=    75.00 Ry     beta= 0.70
     Davidson diagonalization with overlap
     ethr =  1.00E-06,  avg # of iterations =  4.1

     total cpu time spent up to now is      154.1 secs

     total energy              =    -447.57866778 Ry
     Harris-Foulkes estimate   =    -446.65202377 Ry
     estimated scf accuracy    <       0.00598393 Ry

     iteration #  2     ecut=    75.00 Ry     beta= 0.70
     Davidson diagonalization with overlap
     ethr =  1.15E-05,  avg # of iterations =  4.0

     total cpu time spent up to now is      164.1 secs

     total energy              =    -447.58778549 Ry
     Harris-Foulkes estimate   =    -447.59359306 Ry
     estimated scf accuracy    <       0.01588942 Ry

     iteration #  3     ecut=    75.00 Ry     beta= 0.70
     Davidson diagonalization with overlap
     ethr =  1.15E-05,  avg # of iterations =  2.0

     total cpu time spent up to now is      171.5 secs

     total energy              =    -447.58865283 Ry
     Harris-Foulkes estimate   =    -447.58915443 Ry
     estimated scf accuracy    <       0.00201593 Ry

     iteration #  4     ecut=    75.00 Ry     beta= 0.70
     Davidson diagonalization with overlap
     ethr =  3.88E-06,  avg # of iterations =  1.0

     total cpu time spent up to now is      177.4 secs

     total energy              =    -447.58829658 Ry
     Harris-Foulkes estimate   =    -447.58870397 Ry
     estimated scf accuracy    <       0.00107871 Ry

     iteration #  5     ecut=    75.00 Ry     beta= 0.70
     Davidson diagonalization with overlap
     ethr =  2.07E-06,  avg # of iterations =  2.0

     total cpu time spent up to now is      184.1 secs

     total energy              =    -447.58831544 Ry
     Harris-Foulkes estimate   =    -447.58838468 Ry
     estimated scf accuracy    <       0.00015315 Ry

     iteration #  6     ecut=    75.00 Ry     beta= 0.70
     Davidson diagonalization with overlap
     ethr =  2.95E-07,  avg # of iterations =  3.0

     total cpu time spent up to now is      191.7 secs

     total energy              =    -447.58833809 Ry
     Harris-Foulkes estimate   =    -447.58834035 Ry
     estimated scf accuracy    <       0.00000694 Ry

     iteration #  7     ecut=    75.00 Ry     beta= 0.70
     Davidson diagonalization with overlap
     ethr =  1.34E-08,  avg # of iterations =  2.0

     total cpu time spent up to now is      198.4 secs

     total energy              =    -447.58833746 Ry
     Harris-Foulkes estimate   =    -447.58833866 Ry
     estimated scf accuracy    <       0.00000331 Ry

     iteration #  8     ecut=    75.00 Ry     beta= 0.70
     Davidson diagonalization with overlap
     ethr =  6.36E-09,  avg # of iterations =  1.6

     total cpu time spent up to now is      204.5 secs

     total energy              =    -447.58833716 Ry
     Harris-Foulkes estimate   =    -447.58833763 Ry
     estimated scf accuracy    <       0.00000091 Ry

     iteration #  9     ecut=    75.00 Ry     beta= 0.70
     Davidson diagonalization with overlap
     ethr =  1.75E-09,  avg # of iterations =  2.0

     total cpu time spent up to now is      212.1 secs

     total energy              =    -447.58833735 Ry
     Harris-Foulkes estimate   =    -447.58833736 Ry
     estimated scf accuracy    <          5.9E-09 Ry

     iteration # 10     ecut=    75.00 Ry     beta= 0.70
     Davidson diagonalization with overlap
     ethr =  1.13E-11,  avg # of iterations =  3.2

     total cpu time spent up to now is      220.6 secs

     total energy              =    -447.58833736 Ry
     Harris-Foulkes estimate   =    -447.58833736 Ry
     estimated scf accuracy    <          4.8E-09 Ry

     iteration # 11     ecut=    75.00 Ry     beta= 0.70
     Davidson diagonalization with overlap
     ethr =  9.19E-12,  avg # of iterations =  2.0

     total cpu time spent up to now is      227.0 secs

     total energy              =    -447.58833736 Ry
     Harris-Foulkes estimate   =    -447.58833736 Ry
     estimated scf accuracy    <          1.1E-09 Ry

     iteration # 12     ecut=    75.00 Ry     beta= 0.70
     Davidson diagonalization with overlap
     ethr =  2.18E-12,  avg # of iterations =  3.0

     total cpu time spent up to now is      234.6 secs

     total energy              =    -447.58833736 Ry
     Harris-Foulkes estimate   =    -447.58833736 Ry
     estimated scf accuracy    <          2.7E-11 Ry

     iteration # 13     ecut=    75.00 Ry     beta= 0.70
     Davidson diagonalization with overlap
     ethr =  1.00E-13,  avg # of iterations =  1.8

     total cpu time spent up to now is      240.9 secs

     total energy              =    -447.58833736 Ry
     Harris-Foulkes estimate   =    -447.58833736 Ry
     estimated scf accuracy    <          9.5E-12 Ry

     iteration # 14     ecut=    75.00 Ry     beta= 0.70
     Davidson diagonalization with overlap
     ethr =  1.00E-13,  avg # of iterations =  1.0

     total cpu time spent up to now is      247.0 secs

     End of self-consistent calculation

          k = 0.0000 0.0000 0.0000 (  5577 PWs)   bands (ev):

   -12.1235 -11.4973 -11.2976 -11.2688 -11.2688 -11.1893 -11.1672 -11.1001
   -11.0893 -11.0893  -9.6595  -7.9372  -7.9372  -6.4582   0.9764   5.0616
     5.0616   5.1789   6.0659   6.9449   6.9967   7.6736   7.6736   8.2406
     8.2406   8.9503

          k = 0.0000 0.0000 0.3716 (  5565 PWs)   bands (ev):

   -11.8929 -11.6221 -11.6220 -11.3196 -11.2144 -11.2020 -11.1497 -11.1377
   -11.1377 -11.1024  -9.2879  -7.2935  -7.2935  -6.8763   1.0296   4.3822
     4.8429   5.5036   5.5036   6.2016   6.2016   6.3895   6.4538   8.1538
     8.1538   8.5069

          k = 0.0000 0.0000-0.7432 (  5544 PWs)   bands (ev):

   -11.9061 -11.9061 -11.4957 -11.4957 -11.1791 -11.1791 -11.1184 -11.1184
   -11.0923 -11.0923  -8.1016  -8.1015  -6.6908  -6.6908   1.9085   1.9086
     4.8902   4.8903   5.2447   5.2447   6.3589   6.3589   7.4491   7.4491
     7.7808   7.7808

          k = 0.0000 0.2495 0.0000 (  5563 PWs)   bands (ev):

   -12.0431 -11.5869 -11.2947 -11.2655 -11.2653 -11.2413 -11.1561 -11.1086
   -11.0932 -11.0930  -9.4716  -8.2863  -7.6553  -6.5860   1.3862   4.0684
     5.3332   5.3947   6.3778   6.6402   7.1630   7.3336   7.6943   7.7276
     8.2703   8.6865

          k = 0.0000 0.2495 0.3716 (  5568 PWs)   bands (ev):

   -11.8937 -11.7188 -11.5450 -11.3163 -11.2114 -11.1980 -11.1458 -11.1323
   -11.1314 -11.1067  -9.1211  -7.8424  -7.1203  -6.6837   1.4323   3.8622
     4.2716   4.6157   5.9163   5.9877   6.4733   7.0259   7.1887   8.0748
     8.1023   8.4780

          k = 0.0000 0.2495-0.7432 (  5540 PWs)   bands (ev):

   -11.9946 -11.9946 -11.3732 -11.3732 -11.1824 -11.1824 -11.1161 -11.1161
   -11.0867 -11.0866  -8.2110  -8.2110  -6.6023  -6.6023   2.0080   2.0080
     4.2064   4.2064   4.9875   4.9875   7.1454   7.1454   7.6421   7.6421
     7.8819   7.8819

          k = 0.0000-0.4990 0.0000 (  5570 PWs)   bands (ev):

   -11.8279 -11.8273 -11.2827 -11.2824 -11.2619 -11.2618 -11.1311 -11.1311
   -11.0972 -11.0971  -8.9491  -8.9486  -7.0583  -7.0569   2.5297   2.5339
     5.9623   5.9636   6.0783   6.0839   7.0612   7.0618   7.7324   7.7344
     8.3607   8.3609

          k = 0.0000-0.4990 0.3716 (  5566 PWs)   bands (ev):

   -11.8435 -11.8428 -11.4026 -11.4006 -11.2036 -11.2035 -11.1355 -11.1355
   -11.1179 -11.1178  -8.5964  -8.5945  -6.7946  -6.7943   2.5223   2.5245
     4.1046   4.1074   5.8876   5.8908   7.4217   7.4233   7.6132   7.6142
     8.1935   8.1936

          k = 0.0000-0.4990-0.7432 (  5540 PWs)   bands (ev):

   -12.0572 -12.0572 -11.2818 -11.2818 -11.1787 -11.1787 -11.1138 -11.1138
   -11.0807 -11.0807  -8.3135  -8.3135  -6.5226  -6.5226   2.1609   2.1609
     3.6110   3.6110   4.9318   4.9318   7.2862   7.2862   7.9627   7.9627
     8.1837   8.1837

          k = 0.2495 0.2495 0.0000 (  5560 PWs)   bands (ev):

   -11.9973 -11.6758 -11.2895 -11.2698 -11.2619 -11.2587 -11.1478 -11.1141
   -11.0971 -11.0888  -9.2598  -8.0185  -7.9890  -6.7912   1.8179   3.9743
     5.1130   5.5687   6.4616   6.5789   6.6834   7.3519   7.6382   7.7369
     8.1821   8.5056

          k = 0.2495 0.2495 0.3716 (  5568 PWs)   bands (ev):

   -11.8770 -11.6641 -11.6257 -11.3507 -11.2131 -11.1910 -11.1447 -11.1321
   -11.1302 -11.1103  -8.9182  -7.8123  -7.3372  -6.7095   1.7083   3.0785
     4.4183   5.4542   5.5951   5.6484   6.2362   7.2773   7.6332   7.8828
     8.1564   8.4746

          k = 0.2495 0.2495-0.7432 (  5534 PWs)   bands (ev):

   -12.0571 -11.9110 -11.5038 -11.2730 -11.1852 -11.1824 -11.1160 -11.1137
   -11.0866 -11.0830  -8.3144  -8.0276  -6.7262  -6.5205   1.5212   2.1154
     3.9301   4.4412   4.4977   6.1014   6.3791   7.7570   7.7772   7.8140
     7.8717   7.9989

          k = 0.2495-0.4990 0.0000 (  5564 PWs)   bands (ev):

   -11.8591 -11.8587 -11.2778 -11.2776 -11.2665 -11.2664 -11.1295 -11.1295
   -11.0926 -11.0926  -8.6921  -8.6919  -7.3686  -7.3675   2.9094   2.9130
     5.7198   5.7245   6.0068   6.0078   7.0762   7.0766   7.6691   7.6706
     8.2299   8.2300

          k = 0.2495-0.4990 0.3716 (  5552 PWs)   bands (ev):

   -11.7953 -11.7945 -11.4854 -11.4838 -11.2029 -11.2028 -11.1378 -11.1378
   -11.1197 -11.1196  -8.3682  -8.3667  -7.0257  -7.0253   2.3354   2.3363
     4.7488   4.7501   5.6031   5.6046   7.1363   7.1368   7.7467   7.7480
     8.2634   8.2640

          k = 0.2495-0.4990-0.7432 (  5540 PWs)   bands (ev):

   -11.9987 -11.9987 -11.3814 -11.3814 -11.1830 -11.1830 -11.1138 -11.1138
   -11.0844 -11.0844  -8.1447  -8.1447  -6.6280  -6.6280   1.5676   1.5677
     4.2307   4.2308   5.0894   5.0894   7.4485   7.4485   7.9500   7.9500
     8.0671   8.0671

          k =-0.4990-0.4990 0.0000 (  5572 PWs)   bands (ev):

   -11.8883 -11.8883 -11.2737 -11.2737 -11.2708 -11.2708 -11.1279 -11.1279
   -11.0883 -11.0883  -8.0713  -8.0709  -8.0409  -8.0405   3.4166   3.4166
     5.2278   5.2279   6.0550   6.0550   7.1027   7.1027   7.6033   7.6033
     8.1046   8.1046

          k =-0.4990-0.4990 0.3716 (  5520 PWs)   bands (ev):

   -11.6843 -11.6843 -11.6291 -11.6291 -11.2021 -11.2021 -11.1389 -11.1389
   -11.1209 -11.1209  -8.0175  -8.0174  -7.3806  -7.3806   2.2192   2.2192
     5.2886   5.2886   5.8230   5.8230   6.3258   6.3258   8.1093   8.1094
     8.1470   8.1471

          k =-0.4990-0.4990-0.7432 (  5528 PWs)   bands (ev):

   -11.9157 -11.9157 -11.5083 -11.5083 -11.1809 -11.1809 -11.1138 -11.1138
   -11.0882 -11.0882  -7.9517  -7.9517  -6.7612  -6.7612   1.2082   1.2082
     4.1870   4.1871   6.4200   6.4201   6.5176   6.5176   8.0491   8.0491
     8.1905   8.1905

          k = 0.2495-0.2495 0.0000 (  5560 PWs)   bands (ev):

   -11.9973 -11.6758 -11.2895 -11.2698 -11.2619 -11.2587 -11.1478 -11.1141
   -11.0971 -11.0888  -9.2598  -8.0187  -7.9888  -6.7912   1.8179   3.9743
     5.1131   5.5687   6.4616   6.5789   6.6834   7.3519   7.6381   7.7369
     8.1821   8.5056

          k = 0.2495-0.2495 0.3716 (  5568 PWs)   bands (ev):

   -11.8770 -11.6641 -11.6257 -11.3507 -11.2131 -11.1910 -11.1447 -11.1321
   -11.1302 -11.1103  -8.9182  -7.8124  -7.3372  -6.7095   1.7083   3.0785
     4.4183   5.4542   5.5951   5.6484   6.2362   7.2773   7.6332   7.8828
     8.1564   8.4746

          k = 0.2495-0.2495-0.7432 (  5534 PWs)   bands (ev):

   -12.0571 -11.9110 -11.5038 -11.2730 -11.1852 -11.1824 -11.1160 -11.1137
   -11.0866 -11.0830  -8.3143  -8.0276  -6.7262  -6.5205   1.5212   2.1153
     3.9301   4.4412   4.4977   6.1014   6.3791   7.7570   7.7772   7.8140
     7.8717   7.9989

     highest occupied level (ev):     8.9503

!    total energy              =    -447.58833736 Ry
     Harris-Foulkes estimate   =    -447.58833736 Ry
     estimated scf accuracy    <          2.4E-13 Ry

     The total energy is the sum of the following terms:

     one-electron contribution =    -125.14480342 Ry
     hartree contribution      =     101.37041210 Ry
     xc contribution           =    -122.08578221 Ry
     ewald contribution        =    -301.72816382 Ry

     convergence has been achieved in  14 iterations

     Forces acting on atoms (cartesian axes, Ry/au):

     atom    1 type  1   force =    -0.00060178   -0.00060178    0.00000000
     atom    2 type  1   force =    -0.00047072   -0.00047072    0.00000000
     atom    3 type  2   force =     0.00076724   -0.00060803    0.00000000
     atom    4 type  2   force =    -0.00060803    0.00076724    0.00000000
     atom    5 type  2   force =     0.00114261    0.00114261    0.00000000
     atom    6 type  2   force =    -0.00022933   -0.00022933    0.00000000

     Total force =     0.002408     Total SCF correction =     0.000001


     Computing stress (Cartesian axis) and pressure

          total   stress  (Ry/bohr**3)                   (kbar)     P=   -0.56
  -0.00001098   0.00000003   0.00000000         -1.62      0.00      0.00
   0.00000003  -0.00001098   0.00000000          0.00     -1.62      0.00
   0.00000000   0.00000000   0.00001063          0.00      0.00      1.56


     number of scf cycles    =   2
     number of bfgs steps    =   1

     enthalpy old            =    -447.5880724958 Ry
     enthalpy new            =    -447.5883373553 Ry

     CASE: enthalpy_new < enthalpy_old

     new trust radius        =       0.0016509532 bohr
     new conv_thr            =            2.6E-14 Ry

     new unit-cell volume =    510.66714 a.u.^3 (    75.67306 Ang^3 )
     density =      6.61415 g/cm^3

CELL_PARAMETERS (alat=  9.11000000)
   1.001791047   0.000000000   0.000000000
   0.000000000   1.001791047   0.000000000
   0.000000000   0.000000000   0.673020812

ATOMIC_POSITIONS (crystal)
Sn      -0.000185065  -0.000185065   0.000000000
Sn       0.499796697   0.499796697   0.500000000
O        0.806033340   0.192980429   0.500000000
O        0.192980429   0.806033340   0.500000000
O        0.306214168   0.306214168   0.000000000
O        0.693160431   0.693160431   0.000000000



     Writing output data file SnO2.save
     NEW-OLD atomic charge density approx. for the potential

     Check: negative/imaginary core charge=   -0.000002    0.000000
     extrapolated charge   51.99345, renormalised to   52.00000

     total cpu time spent up to now is      256.9 secs

     Self-consistent Calculation

     iteration #  1     ecut=    75.00 Ry     beta= 0.70
     Davidson diagonalization with overlap
     ethr =  1.00E-06,  avg # of iterations =  3.0

     Threshold (ethr) on eigenvalues was too large:
     Diagonalizing with lowered threshold

     Davidson diagonalization with overlap
     ethr =  3.71E-09,  avg # of iterations =  2.8

     total cpu time spent up to now is      273.6 secs

     total energy              =    -447.58834331 Ry
     Harris-Foulkes estimate   =    -447.60275399 Ry
     estimated scf accuracy    <       0.00000226 Ry

     iteration #  2     ecut=    75.00 Ry     beta= 0.70
     Davidson diagonalization with overlap
     ethr =  4.35E-09,  avg # of iterations =  3.6

     total cpu time spent up to now is      283.1 secs

     total energy              =    -447.58834551 Ry
     Harris-Foulkes estimate   =    -447.58834697 Ry
     estimated scf accuracy    <       0.00000355 Ry

     iteration #  3     ecut=    75.00 Ry     beta= 0.70
     Davidson diagonalization with overlap
     ethr =  4.35E-09,  avg # of iterations =  2.0

     total cpu time spent up to now is      290.6 secs

     total energy              =    -447.58834578 Ry
     Harris-Foulkes estimate   =    -447.58834591 Ry
     estimated scf accuracy    <       0.00000030 Ry

     iteration #  4     ecut=    75.00 Ry     beta= 0.70
     Davidson diagonalization with overlap
     ethr =  5.71E-10,  avg # of iterations =  2.0

     total cpu time spent up to now is      297.5 secs

     total energy              =    -447.58834577 Ry
     Harris-Foulkes estimate   =    -447.58834581 Ry
     estimated scf accuracy    <       0.00000009 Ry

     iteration #  5     ecut=    75.00 Ry     beta= 0.70
     Davidson diagonalization with overlap
     ethr =  1.78E-10,  avg # of iterations =  2.0

     total cpu time spent up to now is      304.9 secs

     total energy              =    -447.58834578 Ry
     Harris-Foulkes estimate   =    -447.58834578 Ry
     estimated scf accuracy    <          1.5E-09 Ry

     iteration #  6     ecut=    75.00 Ry     beta= 0.70
     Davidson diagonalization with overlap
     ethr =  2.81E-12,  avg # of iterations =  3.2

     total cpu time spent up to now is      314.3 secs

     total energy              =    -447.58834578 Ry
     Harris-Foulkes estimate   =    -447.58834578 Ry
     estimated scf accuracy    <          6.5E-10 Ry

     iteration #  7     ecut=    75.00 Ry     beta= 0.70
     Davidson diagonalization with overlap
     ethr =  1.25E-12,  avg # of iterations =  3.0

     total cpu time spent up to now is      321.7 secs

     total energy              =    -447.58834578 Ry
     Harris-Foulkes estimate   =    -447.58834578 Ry
     estimated scf accuracy    <          1.5E-10 Ry

     iteration #  8     ecut=    75.00 Ry     beta= 0.70
     Davidson diagonalization with overlap
     ethr =  2.90E-13,  avg # of iterations =  2.0

     total cpu time spent up to now is      328.6 secs

     total energy              =    -447.58834578 Ry
     Harris-Foulkes estimate   =    -447.58834578 Ry
     estimated scf accuracy    <          2.5E-11 Ry

     iteration #  9     ecut=    75.00 Ry     beta= 0.70
     Davidson diagonalization with overlap
     ethr =  1.00E-13,  avg # of iterations =  2.9

     total cpu time spent up to now is      335.9 secs

     total energy              =    -447.58834578 Ry
     Harris-Foulkes estimate   =    -447.58834578 Ry
     estimated scf accuracy    <          4.4E-12 Ry

     iteration # 10     ecut=    75.00 Ry     beta= 0.70
     Davidson diagonalization with overlap
     ethr =  1.00E-13,  avg # of iterations =  1.0

     total cpu time spent up to now is      341.9 secs

     total energy              =    -447.58834578 Ry
     Harris-Foulkes estimate   =    -447.58834578 Ry
     estimated scf accuracy    <          2.7E-13 Ry

     iteration # 11     ecut=    75.00 Ry     beta= 0.70
     Davidson diagonalization with overlap
     ethr =  1.00E-13,  avg # of iterations =  1.0

     total cpu time spent up to now is      347.9 secs

     total energy              =    -447.58834578 Ry
     Harris-Foulkes estimate   =    -447.58834578 Ry
     estimated scf accuracy    <          3.6E-14 Ry

     iteration # 12     ecut=    75.00 Ry     beta= 0.70
     Davidson diagonalization with overlap
     ethr =  1.00E-13,  avg # of iterations =  1.0

     total cpu time spent up to now is      354.0 secs

     End of self-consistent calculation

          k = 0.0000 0.0000 0.0000 (  5577 PWs)   bands (ev):

   -12.1210 -11.4944 -11.2949 -11.2663 -11.2663 -11.1869 -11.1646 -11.0975
   -11.0864 -11.0864  -9.6574  -7.9339  -7.9339  -6.4559   0.9819   5.0668
     5.0668   5.1761   6.0684   6.9469   6.9956   7.6745   7.6745   8.2432
     8.2432   8.9521

          k = 0.0000 0.0000 0.3715 (  5565 PWs)   bands (ev):

   -11.8904 -11.6193 -11.6193 -11.3166 -11.2118 -11.1996 -11.1472 -11.1347
   -11.1347 -11.0999  -9.2863  -7.2905  -7.2905  -6.8748   1.0329   4.3813
     4.8434   5.5084   5.5084   6.2033   6.2033   6.3924   6.4560   8.1561
     8.1561   8.5085

          k = 0.0000 0.0000-0.7429 (  5544 PWs)   bands (ev):

   -11.9032 -11.9032 -11.4932 -11.4932 -11.1760 -11.1760 -11.1159 -11.1159
   -11.0898 -11.0898  -8.1006  -8.1006  -6.6882  -6.6882   1.9090   1.9090
     4.8927   4.8928   5.2480   5.2481   6.3635   6.3635   7.4508   7.4508
     7.7824   7.7824

          k = 0.0000 0.2496 0.0000 (  5563 PWs)   bands (ev):

   -12.0405 -11.5841 -11.2919 -11.2630 -11.2629 -11.2389 -11.1536 -11.1060
   -11.0903 -11.0902  -9.4694  -8.2835  -7.6520  -6.5833   1.3917   4.0735
     5.3372   5.3921   6.3809   6.6389   7.1651   7.3361   7.6953   7.7286
     8.2728   8.6883

          k = 0.0000 0.2496 0.3715 (  5568 PWs)   bands (ev):

   -11.8912 -11.7160 -11.5423 -11.3134 -11.2088 -11.1955 -11.1431 -11.1294
   -11.1285 -11.1041  -9.1195  -7.8402  -7.1174  -6.6813   1.4356   3.8637
     4.2728   4.6175   5.9180   5.9899   6.4768   7.0286   7.1912   8.0776
     8.1043   8.4797

          k = 0.0000 0.2496-0.7429 (  5540 PWs)   bands (ev):

   -11.9918 -11.9918 -11.3705 -11.3705 -11.1794 -11.1794 -11.1135 -11.1135
   -11.0841 -11.0841  -8.2100  -8.2100  -6.5998  -6.5997   2.0085   2.0085
     4.2095   4.2095   4.9899   4.9899   7.1495   7.1495   7.6440   7.6440
     7.8840   7.8840

          k = 0.0000-0.4991 0.0000 (  5570 PWs)   bands (ev):

   -11.8251 -11.8247 -11.2800 -11.2798 -11.2594 -11.2594 -11.1286 -11.1285
   -11.0943 -11.0942  -8.9466  -8.9463  -7.0548  -7.0542   2.5359   2.5381
     5.9605   5.9614   6.0813   6.0855   7.0648   7.0653   7.7338   7.7350
     8.3622   8.3634

          k = 0.0000-0.4991 0.3715 (  5566 PWs)   bands (ev):

   -11.8407 -11.8404 -11.3994 -11.3984 -11.2010 -11.2009 -11.1327 -11.1327
   -11.1152 -11.1152  -8.5941  -8.5932  -6.7918  -6.7917   2.5262   2.5271
     4.1056   4.1073   5.8899   5.8922   7.4236   7.4250   7.6173   7.6180
     8.1949   8.1958

          k = 0.0000-0.4991-0.7429 (  5540 PWs)   bands (ev):

   -12.0544 -12.0544 -11.2790 -11.2790 -11.1757 -11.1757 -11.1113 -11.1113
   -11.0781 -11.0781  -8.3125  -8.3125  -6.5201  -6.5201   2.1614   2.1615
     3.6139   3.6139   4.9339   4.9339   7.2887   7.2887   7.9649   7.9649
     8.1870   8.1870

          k = 0.2496 0.2496 0.0000 (  5560 PWs)   bands (ev):

   -11.9947 -11.6730 -11.2868 -11.2673 -11.2594 -11.2561 -11.1453 -11.1115
   -11.0943 -11.0859  -9.2576  -8.0157  -7.9859  -6.7884   1.8232   3.9786
     5.1175   5.5663   6.4601   6.5822   6.6853   7.3548   7.6391   7.7379
     8.1849   8.5077

          k = 0.2496 0.2496 0.3715 (  5568 PWs)   bands (ev):

   -11.8744 -11.6615 -11.6230 -11.3480 -11.2105 -11.1884 -11.1419 -11.1291
   -11.1275 -11.1077  -8.9165  -7.8103  -7.3343  -6.7069   1.7113   3.0802
     4.4185   5.4562   5.5962   5.6532   6.2380   7.2800   7.6356   7.8855
     8.1590   8.4765

          k = 0.2496 0.2496-0.7429 (  5534 PWs)   bands (ev):

   -12.0543 -11.9081 -11.5012 -11.2702 -11.1822 -11.1793 -11.1135 -11.1112
   -11.0840 -11.0804  -8.3133  -8.0265  -6.7236  -6.5179   1.5217   2.1162
     3.9327   4.4436   4.4996   6.1040   6.3836   7.7583   7.7787   7.8162
     7.8763   8.0011

          k = 0.2496-0.4991 0.0000 (  5564 PWs)   bands (ev):

   -11.8565 -11.8562 -11.2751 -11.2750 -11.2640 -11.2640 -11.1270 -11.1269
   -11.0897 -11.0897  -8.6895  -8.6894  -7.3653  -7.3648   2.9150   2.9171
     5.7233   5.7268   6.0050   6.0057   7.0797   7.0800   7.6703   7.6712
     8.2322   8.2328

          k = 0.2496-0.4991 0.3715 (  5552 PWs)   bands (ev):

   -11.7924 -11.7920 -11.4824 -11.4815 -11.2003 -11.2002 -11.1349 -11.1349
   -11.1170 -11.1170  -8.3659  -8.3652  -7.0228  -7.0227   2.3377   2.3381
     4.7510   4.7517   5.6049   5.6060   7.1391   7.1399   7.7496   7.7506
     8.2658   8.2659

          k = 0.2496-0.4991-0.7429 (  5540 PWs)   bands (ev):

   -11.9959 -11.9959 -11.3787 -11.3787 -11.1799 -11.1799 -11.1112 -11.1112
   -11.0819 -11.0819  -8.1436  -8.1436  -6.6255  -6.6254   1.5684   1.5684
     4.2329   4.2329   5.0920   5.0920   7.4522   7.4522   7.9520   7.9520
     8.0695   8.0695

          k =-0.4991-0.4991 0.0000 (  5572 PWs)   bands (ev):

   -11.8857 -11.8857 -11.2709 -11.2709 -11.2684 -11.2684 -11.1254 -11.1254
   -11.0854 -11.0854  -8.0685  -8.0684  -8.0379  -8.0378   3.4207   3.4208
     5.2318   5.2318   6.0531   6.0531   7.1058   7.1058   7.6041   7.6041
     8.1077   8.1077

          k =-0.4991-0.4991 0.3715 (  5520 PWs)   bands (ev):

   -11.6817 -11.6817 -11.6264 -11.6263 -11.1995 -11.1995 -11.1359 -11.1359
   -11.1183 -11.1183  -8.0155  -8.0155  -7.3779  -7.3779   2.2206   2.2206
     5.2894   5.2894   5.8279   5.8279   6.3272   6.3272   8.1116   8.1116
     8.1499   8.1499

          k =-0.4991-0.4991-0.7429 (  5528 PWs)   bands (ev):

   -11.9128 -11.9128 -11.5058 -11.5058 -11.1778 -11.1778 -11.1113 -11.1112
   -11.0856 -11.0856  -7.9505  -7.9505  -6.7587  -6.7587   1.2089   1.2089
     4.1886   4.1886   6.4246   6.4246   6.5198   6.5199   8.0506   8.0506
     8.1931   8.1931

          k = 0.2496-0.2496 0.0000 (  5560 PWs)   bands (ev):

   -11.9947 -11.6730 -11.2868 -11.2673 -11.2594 -11.2561 -11.1452 -11.1115
   -11.0942 -11.0859  -9.2575  -8.0157  -7.9858  -6.7884   1.8232   3.9786
     5.1175   5.5663   6.4601   6.5822   6.6853   7.3548   7.6390   7.7379
     8.1849   8.5077

          k = 0.2496-0.2496 0.3715 (  5568 PWs)   bands (ev):

   -11.8744 -11.6615 -11.6230 -11.3480 -11.2105 -11.1884 -11.1419 -11.1291
   -11.1275 -11.1077  -8.9165  -7.8103  -7.3343  -6.7069   1.7113   3.0801
     4.4185   5.4562   5.5962   5.6532   6.2380   7.2800   7.6356   7.8855
     8.1590   8.4765

          k = 0.2496-0.2496-0.7429 (  5534 PWs)   bands (ev):

   -12.0543 -11.9081 -11.5012 -11.2702 -11.1822 -11.1793 -11.1135 -11.1112
   -11.0840 -11.0804  -8.3133  -8.0265  -6.7236  -6.5180   1.5218   2.1162
     3.9327   4.4437   4.4996   6.1040   6.3836   7.7583   7.7787   7.8162
     7.8764   8.0011

     highest occupied level (ev):     8.9521

!    total energy              =    -447.58834578 Ry
     Harris-Foulkes estimate   =    -447.58834578 Ry
     estimated scf accuracy    <          2.4E-14 Ry

     The total energy is the sum of the following terms:

     one-electron contribution =    -125.10793749 Ry
     hartree contribution      =     101.35681874 Ry
     xc contribution           =    -122.08614952 Ry
     ewald contribution        =    -301.75107751 Ry

     convergence has been achieved in  12 iterations

     Forces acting on atoms (cartesian axes, Ry/au):

     atom    1 type  1   force =    -0.00033832   -0.00033832    0.00000000
     atom    2 type  1   force =    -0.00019675   -0.00019675    0.00000000
     atom    3 type  2   force =     0.00053196   -0.00032035    0.00000000
     atom    4 type  2   force =    -0.00032035    0.00053196   -0.00000000
     atom    5 type  2   force =     0.00058618    0.00058618    0.00000000
     atom    6 type  2   force =    -0.00026272   -0.00026272    0.00000000

     Total force =     0.001379     Total SCF correction =     0.000000


     Computing stress (Cartesian axis) and pressure

          total   stress  (Ry/bohr**3)                   (kbar)     P=   -0.39
  -0.00000758   0.00000001   0.00000000         -1.11      0.00      0.00
   0.00000001  -0.00000758   0.00000000          0.00     -1.11      0.00
   0.00000000   0.00000000   0.00000719          0.00      0.00      1.06


     number of scf cycles    =   3
     number of bfgs steps    =   2

     enthalpy old            =    -447.5883373553 Ry
     enthalpy new            =    -447.5883457828 Ry

     CASE: enthalpy_new < enthalpy_old

     new trust radius        =       0.0024758428 bohr
     new conv_thr            =            1.0E-14 Ry

     new unit-cell volume =    510.54374 a.u.^3 (    75.65478 Ang^3 )
     density =      6.61575 g/cm^3

CELL_PARAMETERS (alat=  9.11000000)
   1.001395753   0.000000000   0.000000000
   0.000000000   1.001395753   0.000000000
   0.000000000   0.000000000   0.673389494

ATOMIC_POSITIONS (crystal)
Sn      -0.000277802  -0.000277802   0.000000000
Sn       0.499739582   0.499739582   0.500000000
O        0.806171154   0.192896878   0.500000000
O        0.192896878   0.806171154   0.500000000
O        0.306372222   0.306372222   0.000000000
O        0.693097966   0.693097966   0.000000000



     Writing output data file SnO2.save
     NEW-OLD atomic charge density approx. for the potential

     Check: negative/imaginary core charge=   -0.000002    0.000000
     extrapolated charge   51.98743, renormalised to   52.00000

     total cpu time spent up to now is      364.0 secs

     Self-consistent Calculation

     iteration #  1     ecut=    75.00 Ry     beta= 0.70
     Davidson diagonalization with overlap
     ethr =  1.00E-06,  avg # of iterations =  3.0

     Threshold (ethr) on eigenvalues was too large:
     Diagonalizing with lowered threshold

     Davidson diagonalization with overlap
     ethr =  1.23E-08,  avg # of iterations =  2.1

     total cpu time spent up to now is      380.0 secs

     total energy              =    -447.58834269 Ry
     Harris-Foulkes estimate   =    -447.61600452 Ry
     estimated scf accuracy    <       0.00000679 Ry

     iteration #  2     ecut=    75.00 Ry     beta= 0.70
     Davidson diagonalization with overlap
     ethr =  1.30E-08,  avg # of iterations =  4.0

     total cpu time spent up to now is      389.8 secs

     total energy              =    -447.58835059 Ry
     Harris-Foulkes estimate   =    -447.58835558 Ry
     estimated scf accuracy    <       0.00001266 Ry

     iteration #  3     ecut=    75.00 Ry     beta= 0.70
     Davidson diagonalization with overlap
     ethr =  1.30E-08,  avg # of iterations =  2.0

     total cpu time spent up to now is      397.3 secs

     total energy              =    -447.58835140 Ry
     Harris-Foulkes estimate   =    -447.58835187 Ry
     estimated scf accuracy    <       0.00000125 Ry

     iteration #  4     ecut=    75.00 Ry     beta= 0.70
     Davidson diagonalization with overlap
     ethr =  2.41E-09,  avg # of iterations =  2.0

     total cpu time spent up to now is      404.0 secs

     total energy              =    -447.58835124 Ry
     Harris-Foulkes estimate   =    -447.58835148 Ry
     estimated scf accuracy    <       0.00000046 Ry

     iteration #  5     ecut=    75.00 Ry     beta= 0.70
     Davidson diagonalization with overlap
     ethr =  8.80E-10,  avg # of iterations =  2.0

     total cpu time spent up to now is      411.4 secs

     total energy              =    -447.58835133 Ry
     Harris-Foulkes estimate   =    -447.58835133 Ry
     estimated scf accuracy    <          1.5E-09 Ry

     iteration #  6     ecut=    75.00 Ry     beta= 0.70
     Davidson diagonalization with overlap
     ethr =  2.86E-12,  avg # of iterations =  4.0

     total cpu time spent up to now is      422.4 secs

     total energy              =    -447.58835133 Ry
     Harris-Foulkes estimate   =    -447.58835133 Ry
     estimated scf accuracy    <          2.7E-09 Ry

     iteration #  7     ecut=    75.00 Ry     beta= 0.70
     Davidson diagonalization with overlap
     ethr =  2.86E-12,  avg # of iterations =  2.0

     total cpu time spent up to now is      429.6 secs

     total energy              =    -447.58835133 Ry
     Harris-Foulkes estimate   =    -447.58835133 Ry
     estimated scf accuracy    <          4.6E-10 Ry

     iteration #  8     ecut=    75.00 Ry     beta= 0.70
     Davidson diagonalization with overlap
     ethr =  8.88E-13,  avg # of iterations =  2.9

     total cpu time spent up to now is      438.2 secs

     total energy              =    -447.58835133 Ry
     Harris-Foulkes estimate   =    -447.58835133 Ry
     estimated scf accuracy    <          2.7E-11 Ry

     iteration #  9     ecut=    75.00 Ry     beta= 0.70
     Davidson diagonalization with overlap
     ethr =  1.00E-13,  avg # of iterations =  2.0

     total cpu time spent up to now is      445.0 secs

     total energy              =    -447.58835133 Ry
     Harris-Foulkes estimate   =    -447.58835133 Ry
     estimated scf accuracy    <          5.0E-12 Ry

     iteration # 10     ecut=    75.00 Ry     beta= 0.70
     Davidson diagonalization with overlap
     ethr =  1.00E-13,  avg # of iterations =  1.1

     total cpu time spent up to now is      451.0 secs

     total energy              =    -447.58835133 Ry
     Harris-Foulkes estimate   =    -447.58835133 Ry
     estimated scf accuracy    <          3.1E-13 Ry

     iteration # 11     ecut=    75.00 Ry     beta= 0.70
     Davidson diagonalization with overlap
     ethr =  1.00E-13,  avg # of iterations =  1.0

     total cpu time spent up to now is      457.0 secs

     total energy              =    -447.58835133 Ry
     Harris-Foulkes estimate   =    -447.58835133 Ry
     estimated scf accuracy    <          5.6E-14 Ry

     iteration # 12     ecut=    75.00 Ry     beta= 0.70
     Davidson diagonalization with overlap
     ethr =  1.00E-13,  avg # of iterations =  1.0

     total cpu time spent up to now is      463.0 secs

     total energy              =    -447.58835133 Ry
     Harris-Foulkes estimate   =    -447.58835133 Ry
     estimated scf accuracy    <          1.1E-14 Ry

     iteration # 13     ecut=    75.00 Ry     beta= 0.70
     Davidson diagonalization with overlap
     ethr =  1.00E-13,  avg # of iterations =  1.0

     total cpu time spent up to now is      469.0 secs

     End of self-consistent calculation

          k = 0.0000 0.0000 0.0000 (  5577 PWs)   bands (ev):

   -12.1166 -11.4891 -11.2898 -11.2617 -11.2617 -11.1823 -11.1600 -11.0928
   -11.0812 -11.0812  -9.6536  -7.9283  -7.9283  -6.4515   0.9908   5.0755
     5.0755   5.1723   6.0728   6.9510   6.9948   7.6767   7.6767   8.2481
     8.2481   8.9555

          k = 0.0000 0.0000 0.3713 (  5565 PWs)   bands (ev):

   -11.8860 -11.6142 -11.6142 -11.3113 -11.2070 -11.1952 -11.1425 -11.1293
   -11.1293 -11.0951  -9.2834  -7.2855  -7.2855  -6.8713   1.0385   4.3807
     4.8449   5.5164   5.5164   6.2067   6.2067   6.3978   6.4600   8.1605
     8.1605   8.5116

          k = 0.0000 0.0000-0.7425 (  5544 PWs)   bands (ev):

   -11.8978 -11.8978 -11.4886 -11.4886 -11.1705 -11.1705 -11.1113 -11.1113
   -11.0851 -11.0851  -8.0985  -8.0985  -6.6835  -6.6835   1.9103   1.9103
     4.8974   4.8974   5.2540   5.2540   6.3712   6.3712   7.4539   7.4539
     7.7856   7.7856

          k = 0.0000 0.2497 0.0000 (  5563 PWs)   bands (ev):

   -12.0360 -11.5788 -11.2870 -11.2584 -11.2583 -11.2343 -11.1489 -11.1013
   -11.0851 -11.0850  -9.4655  -8.2784  -7.6463  -6.5783   1.4005   4.0819
     5.3439   5.3886   6.3863   6.6375   7.1689   7.3408   7.6975   7.7308
     8.2774   8.6918

          k = 0.0000 0.2497 0.3713 (  5568 PWs)   bands (ev):

   -11.8866 -11.7111 -11.5373 -11.3082 -11.2040 -11.1908 -11.1383 -11.1241
   -11.1233 -11.0993  -9.1165  -7.8362  -7.1123  -6.6768   1.4412   3.8667
     4.2750   4.6210   5.9212   5.9939   6.4829   7.0334   7.1957   8.0825
     8.1082   8.4831

          k = 0.0000 0.2497-0.7425 (  5540 PWs)   bands (ev):

   -11.9866 -11.9866 -11.3656 -11.3656 -11.1739 -11.1739 -11.1089 -11.1089
   -11.0793 -11.0793  -8.2079  -8.2078  -6.5952  -6.5952   2.0100   2.0100
     4.2147   4.2147   4.9943   4.9943   7.1564   7.1564   7.6475   7.6475
     7.8879   7.8879

          k = 0.0000-0.4993 0.0000 (  5570 PWs)   bands (ev):

   -11.8201 -11.8200 -11.2751 -11.2751 -11.2548 -11.2548 -11.1238 -11.1238
   -11.0891 -11.0890  -8.9424  -8.9418  -7.0488  -7.0488   2.5454   2.5458
     5.9579   5.9589   6.0864   6.0886   7.0711   7.0712   7.7363   7.7370
     8.3659   8.3673

          k = 0.0000-0.4993 0.3713 (  5566 PWs)   bands (ev):

   -11.8358 -11.8357 -11.3939 -11.3939 -11.1961 -11.1961 -11.1276 -11.1276
   -11.1103 -11.1102  -8.5907  -8.5899  -6.7869  -6.7865   2.5319   2.5327
     4.1075   4.1081   5.8939   5.8951   7.4272   7.4284   7.6243   7.6247
     8.1983   8.1993

          k = 0.0000-0.4993-0.7425 (  5540 PWs)   bands (ev):

   -12.0494 -12.0494 -11.2739 -11.2739 -11.1702 -11.1702 -11.1066 -11.1066
   -11.0733 -11.0733  -8.3104  -8.3104  -6.5156  -6.5156   2.1630   2.1630
     3.6188   3.6188   4.9379   4.9379   7.2931   7.2931   7.9690   7.9690
     8.1930   8.1930

          k = 0.2497 0.2497 0.0000 (  5560 PWs)   bands (ev):

   -11.9902 -11.6680 -11.2818 -11.2628 -11.2548 -11.2514 -11.1406 -11.1068
   -11.0890 -11.0807  -9.2535  -8.0107  -7.9804  -6.7830   1.8318   3.9860
     5.1250   5.5631   6.4584   6.5878   6.6889   7.3599   7.6411   7.7401
     8.1900   8.5116

          k = 0.2497 0.2497 0.3713 (  5568 PWs)   bands (ev):

   -11.8697 -11.6568 -11.6179 -11.3429 -11.2057 -11.1837 -11.1368 -11.1238
   -11.1225 -11.1029  -8.9133  -7.8064  -7.3294  -6.7021   1.7164   3.0833
     4.4194   5.4598   5.5986   5.6612   6.2416   7.2849   7.6401   7.8904
     8.1637   8.4800

          k = 0.2497 0.2497-0.7425 (  5534 PWs)   bands (ev):

   -12.0493 -11.9027 -11.4967 -11.2652 -11.1767 -11.1738 -11.1088 -11.1064
   -11.0793 -11.0756  -8.3112  -8.0241  -6.7191  -6.5134   1.5231   2.1181
     3.9373   4.4481   4.5032   6.1089   6.3911   7.7611   7.7818   7.8202
     7.8843   8.0053

          k = 0.2497-0.4993 0.0000 (  5564 PWs)   bands (ev):

   -11.8516 -11.8516 -11.2701 -11.2701 -11.2594 -11.2594 -11.1222 -11.1222
   -11.0845 -11.0845  -8.6852  -8.6847  -7.3597  -7.3595   2.9241   2.9241
     5.7293   5.7312   6.0025   6.0033   7.0857   7.0857   7.6726   7.6731
     8.2368   8.2374

          k = 0.2497-0.4993 0.3713 (  5552 PWs)   bands (ev):

   -11.7875 -11.7874 -11.4771 -11.4770 -11.1954 -11.1954 -11.1297 -11.1297
   -11.1122 -11.1122  -8.3623  -8.3617  -7.0180  -7.0176   2.3413   2.3419
     4.7547   4.7550   5.6081   5.6088   7.1447   7.1453   7.7545   7.7554
     8.2697   8.2699

          k = 0.2497-0.4993-0.7425 (  5540 PWs)   bands (ev):

   -11.9908 -11.9908 -11.3739 -11.3739 -11.1744 -11.1744 -11.1065 -11.1065
   -11.0771 -11.0771  -8.1411  -8.1411  -6.6210  -6.6210   1.5701   1.5701
     4.2367   4.2367   5.0966   5.0966   7.4586   7.4586   7.9558   7.9558
     8.0739   8.0739

          k =-0.4993-0.4993 0.0000 (  5572 PWs)   bands (ev):

   -11.8812 -11.8812 -11.2659 -11.2659 -11.2638 -11.2638 -11.1206 -11.1206
   -11.0801 -11.0801  -8.0639  -8.0638  -8.0326  -8.0325   3.4278   3.4278
     5.2386   5.2386   6.0508   6.0508   7.1111   7.1111   7.6060   7.6060
     8.1131   8.1131

          k =-0.4993-0.4993 0.3713 (  5520 PWs)   bands (ev):

   -11.6772 -11.6772 -11.6213 -11.6213 -11.1947 -11.1947 -11.1305 -11.1305
   -11.1136 -11.1136  -8.0118  -8.0118  -7.3731  -7.3731   2.2232   2.2232
     5.2911   5.2911   5.8361   5.8361   6.3302   6.3302   8.1157   8.1158
     8.1550   8.1550

          k =-0.4993-0.4993-0.7425 (  5528 PWs)   bands (ev):

   -11.9074 -11.9074 -11.5013 -11.5013 -11.1723 -11.1723 -11.1066 -11.1066
   -11.0809 -11.0809  -7.9478  -7.9478  -6.7543  -6.7543   1.2104   1.2104
     4.1915   4.1915   6.4322   6.4322   6.5243   6.5244   8.0537   8.0537
     8.1978   8.1978

          k = 0.2497-0.2497 0.0000 (  5560 PWs)   bands (ev):

   -11.9902 -11.6680 -11.2818 -11.2628 -11.2548 -11.2514 -11.1406 -11.1068
   -11.0890 -11.0807  -9.2535  -8.0107  -7.9804  -6.7830   1.8318   3.9860
     5.1250   5.5631   6.4584   6.5878   6.6889   7.3599   7.6411   7.7401
     8.1900   8.5116

          k = 0.2497-0.2497 0.3713 (  5568 PWs)   bands (ev):

   -11.8697 -11.6568 -11.6179 -11.3429 -11.2057 -11.1837 -11.1368 -11.1238
   -11.1225 -11.1029  -8.9133  -7.8064  -7.3294  -6.7021   1.7164   3.0833
     4.4194   5.4598   5.5986   5.6612   6.2416   7.2849   7.6401   7.8904
     8.1637   8.4800

          k = 0.2497-0.2497-0.7425 (  5534 PWs)   bands (ev):

   -12.0493 -11.9027 -11.4967 -11.2652 -11.1767 -11.1738 -11.1088 -11.1064
   -11.0793 -11.0756  -8.3112  -8.0241  -6.7191  -6.5134   1.5231   2.1181
     3.9373   4.4481   4.5032   6.1089   6.3911   7.7611   7.7818   7.8202
     7.8843   8.0053

     highest occupied level (ev):     8.9555

!    total energy              =    -447.58835133 Ry
     Harris-Foulkes estimate   =    -447.58835133 Ry
     estimated scf accuracy    <          2.0E-15 Ry

     The total energy is the sum of the following terms:

     one-electron contribution =    -125.04049196 Ry
     hartree contribution      =     101.33200853 Ry
     xc contribution           =    -122.08687845 Ry
     ewald contribution        =    -301.79298945 Ry

     convergence has been achieved in  13 iterations

     Forces acting on atoms (cartesian axes, Ry/au):

     atom    1 type  1   force =     0.00000669    0.00000669    0.00000000
     atom    2 type  1   force =     0.00002533    0.00002533    0.00000000
     atom    3 type  2   force =     0.00015392    0.00007585    0.00000000
     atom    4 type  2   force =     0.00007585    0.00015392    0.00000000
     atom    5 type  2   force =    -0.00009144   -0.00009144    0.00000000
     atom    6 type  2   force =    -0.00017036   -0.00017036    0.00000000

     Total force =     0.000367     Total SCF correction =     0.000000


     Computing stress (Cartesian axis) and pressure

          total   stress  (Ry/bohr**3)                   (kbar)     P=   -0.07
  -0.00000171   0.00000000   0.00000000         -0.25      0.00      0.00
   0.00000000  -0.00000171   0.00000000          0.00     -0.25      0.00
   0.00000000   0.00000000   0.00000207          0.00      0.00      0.30


     number of scf cycles    =   4
     number of bfgs steps    =   3

     enthalpy old            =    -447.5883457828 Ry
     enthalpy new            =    -447.5883513286 Ry

     CASE: enthalpy_new < enthalpy_old

     new trust radius        =       0.0006100703 bohr
     new conv_thr            =            1.0E-14 Ry

     new unit-cell volume =    510.51554 a.u.^3 (    75.65060 Ang^3 )
     density =      6.61611 g/cm^3

CELL_PARAMETERS (alat=  9.11000000)
   1.001300511   0.000000000   0.000000000
   0.000000000   1.001300511   0.000000000
   0.000000000   0.000000000   0.673480402

ATOMIC_POSITIONS (crystal)
Sn      -0.000288977  -0.000288977   0.000000000
Sn       0.499734772   0.499734772   0.500000000
O        0.806207752   0.192895887   0.500000000
O        0.192895887   0.806207752   0.500000000
O        0.306381213   0.306381213   0.000000000
O        0.693069354   0.693069354   0.000000000



     Writing output data file SnO2.save
     NEW-OLD atomic charge density approx. for the potential

     Check: negative/imaginary core charge=   -0.000002    0.000000
     extrapolated charge   51.99713, renormalised to   52.00000

     total cpu time spent up to now is      479.1 secs

     Self-consistent Calculation

     iteration #  1     ecut=    75.00 Ry     beta= 0.70
     Davidson diagonalization with overlap
     ethr =  1.00E-06,  avg # of iterations =  2.0

     Threshold (ethr) on eigenvalues was too large:
     Diagonalizing with lowered threshold

     Davidson diagonalization with overlap
     ethr =  7.80E-10,  avg # of iterations =  3.2

     total cpu time spent up to now is      495.3 secs

     total energy              =    -447.58835120 Ry
     Harris-Foulkes estimate   =    -447.59467059 Ry
     estimated scf accuracy    <       0.00000033 Ry

     iteration #  2     ecut=    75.00 Ry     beta= 0.70
     Davidson diagonalization with overlap
     ethr =  6.42E-10,  avg # of iterations =  4.0

     total cpu time spent up to now is      505.1 secs

     total energy              =    -447.58835161 Ry
     Harris-Foulkes estimate   =    -447.58835186 Ry
     estimated scf accuracy    <       0.00000067 Ry

     iteration #  3     ecut=    75.00 Ry     beta= 0.70
     Davidson diagonalization with overlap
     ethr =  6.42E-10,  avg # of iterations =  2.0

     total cpu time spent up to now is      512.5 secs

     total energy              =    -447.58835165 Ry
     Harris-Foulkes estimate   =    -447.58835167 Ry
     estimated scf accuracy    <       0.00000007 Ry

     iteration #  4     ecut=    75.00 Ry     beta= 0.70
     Davidson diagonalization with overlap
     ethr =  1.35E-10,  avg # of iterations =  2.0

     total cpu time spent up to now is      519.1 secs

     total energy              =    -447.58835164 Ry
     Harris-Foulkes estimate   =    -447.58835165 Ry
     estimated scf accuracy    <       0.00000003 Ry

     iteration #  5     ecut=    75.00 Ry     beta= 0.70
     Davidson diagonalization with overlap
     ethr =  5.16E-11,  avg # of iterations =  2.0

     total cpu time spent up to now is      526.5 secs

     total energy              =    -447.58835164 Ry
     Harris-Foulkes estimate   =    -447.58835164 Ry
     estimated scf accuracy    <          1.4E-10 Ry

     iteration #  6     ecut=    75.00 Ry     beta= 0.70
     Davidson diagonalization with overlap
     ethr =  2.76E-13,  avg # of iterations =  4.0

     total cpu time spent up to now is      537.2 secs

     total energy              =    -447.58835164 Ry
     Harris-Foulkes estimate   =    -447.58835164 Ry
     estimated scf accuracy    <          1.4E-10 Ry

     iteration #  7     ecut=    75.00 Ry     beta= 0.70
     Davidson diagonalization with overlap
     ethr =  2.64E-13,  avg # of iterations =  2.0

     total cpu time spent up to now is      544.1 secs

     total energy              =    -447.58835164 Ry
     Harris-Foulkes estimate   =    -447.58835164 Ry
     estimated scf accuracy    <          2.6E-11 Ry

     iteration #  8     ecut=    75.00 Ry     beta= 0.70
     Davidson diagonalization with overlap
     ethr =  1.00E-13,  avg # of iterations =  2.0

     total cpu time spent up to now is      550.9 secs

     total energy              =    -447.58835164 Ry
     Harris-Foulkes estimate   =    -447.58835164 Ry
     estimated scf accuracy    <          2.5E-12 Ry

     iteration #  9     ecut=    75.00 Ry     beta= 0.70
     Davidson diagonalization with overlap
     ethr =  1.00E-13,  avg # of iterations =  1.0

     total cpu time spent up to now is      556.9 secs

     total energy              =    -447.58835164 Ry
     Harris-Foulkes estimate   =    -447.58835164 Ry
     estimated scf accuracy    <          3.0E-13 Ry

     iteration # 10     ecut=    75.00 Ry     beta= 0.70
     Davidson diagonalization with overlap
     ethr =  1.00E-13,  avg # of iterations =  1.0

     total cpu time spent up to now is      562.9 secs

     total energy              =    -447.58835164 Ry
     Harris-Foulkes estimate   =    -447.58835164 Ry
     estimated scf accuracy    <          3.2E-14 Ry

     iteration # 11     ecut=    75.00 Ry     beta= 0.70
     Davidson diagonalization with overlap
     ethr =  1.00E-13,  avg # of iterations =  1.0

     total cpu time spent up to now is      569.0 secs

     End of self-consistent calculation

          k = 0.0000 0.0000 0.0000 (  5577 PWs)   bands (ev):

   -12.1156 -11.4878 -11.2887 -11.2607 -11.2607 -11.1814 -11.1589 -11.0917
   -11.0800 -11.0800  -9.6527  -7.9271  -7.9271  -6.4502   0.9926   5.0774
     5.0774   5.1714   6.0738   6.9522   6.9948   7.6772   7.6772   8.2492
     8.2492   8.9563

          k = 0.0000 0.0000 0.3712 (  5565 PWs)   bands (ev):

   -11.8850 -11.6130 -11.6130 -11.3101 -11.2060 -11.1942 -11.1415 -11.1281
   -11.1281 -11.0941  -9.2827  -7.2844  -7.2844  -6.8704   1.0396   4.3808
     4.8453   5.5182   5.5182   6.2076   6.2076   6.3992   6.4609   8.1614
     8.1614   8.5123

          k = 0.0000 0.0000-0.7424 (  5544 PWs)   bands (ev):

   -11.8965 -11.8965 -11.4877 -11.4877 -11.1692 -11.1692 -11.1102 -11.1102
   -11.0841 -11.0841  -8.0978  -8.0978  -6.6826  -6.6826   1.9107   1.9107
     4.8986   4.8986   5.2554   5.2554   6.3727   6.3727   7.4546   7.4546
     7.7864   7.7864

          k = 0.0000 0.2497 0.0000 (  5563 PWs)   bands (ev):

   -12.0350 -11.5776 -11.2859 -11.2574 -11.2572 -11.2333 -11.1479 -11.1002
   -11.0839 -11.0838  -9.4646  -8.2772  -7.6450  -6.5769   1.4023   4.0838
     5.3455   5.3879   6.3874   6.6373   7.1698   7.3420   7.6980   7.7312
     8.2785   8.6927

          k = 0.0000 0.2497 0.3712 (  5568 PWs)   bands (ev):

   -11.8856 -11.7100 -11.5362 -11.3070 -11.2029 -11.1898 -11.1372 -11.1230
   -11.1222 -11.0983  -9.1158  -7.8353  -7.1112  -6.6757   1.4424   3.8675
     4.2755   4.6219   5.9220   5.9949   6.4843   7.0345   7.1968   8.0837
     8.1091   8.4839

          k = 0.0000 0.2497-0.7424 (  5540 PWs)   bands (ev):

   -11.9854 -11.9854 -11.3646 -11.3646 -11.1727 -11.1727 -11.1078 -11.1078
   -11.0783 -11.0783  -8.2072  -8.2072  -6.5943  -6.5943   2.0104   2.0104
     4.2159   4.2159   4.9954   4.9954   7.1579   7.1579   7.6483   7.6483
     7.8888   7.8888

          k = 0.0000-0.4994 0.0000 (  5570 PWs)   bands (ev):

   -11.8190 -11.8189 -11.2741 -11.2740 -11.2538 -11.2538 -11.1228 -11.1228
   -11.0879 -11.0879  -8.9415  -8.9407  -7.0475  -7.0473   2.5471   2.5477
     5.9574   5.9585   6.0875   6.0894   7.0724   7.0725   7.7367   7.7375
     8.3670   8.3680

          k = 0.0000-0.4994 0.3712 (  5566 PWs)   bands (ev):

   -11.8347 -11.8346 -11.3928 -11.3927 -11.1951 -11.1950 -11.1264 -11.1264
   -11.1092 -11.1092  -8.5899  -8.5891  -6.7857  -6.7853   2.5331   2.5339
     4.1078   4.1085   5.8948   5.8959   7.4282   7.4292   7.6259   7.6261
     8.1993   8.2000

          k = 0.0000-0.4994-0.7424 (  5540 PWs)   bands (ev):

   -12.0482 -12.0482 -11.2728 -11.2728 -11.1690 -11.1690 -11.1055 -11.1055
   -11.0723 -11.0723  -8.3098  -8.3098  -6.5147  -6.5147   2.1635   2.1635
     3.6199   3.6199   4.9390   4.9390   7.2941   7.2941   7.9699   7.9699
     8.1944   8.1944

          k = 0.2497 0.2497 0.0000 (  5560 PWs)   bands (ev):

   -11.9891 -11.6669 -11.2807 -11.2617 -11.2538 -11.2504 -11.1395 -11.1057
   -11.0879 -11.0795  -9.2526  -8.0095  -7.9791  -6.7817   1.8336   3.9876
     5.1267   5.5624   6.4582   6.5889   6.6898   7.3611   7.6415   7.7406
     8.1912   8.5125

          k = 0.2497 0.2497 0.3712 (  5568 PWs)   bands (ev):

   -11.8687 -11.6558 -11.6167 -11.3417 -11.2046 -11.1826 -11.1357 -11.1226
   -11.1214 -11.1019  -8.9125  -7.8055  -7.3284  -6.7009   1.7175   3.0840
     4.4198   5.4607   5.5992   5.6630   6.2425   7.2859   7.6411   7.8915
     8.1648   8.4809

          k = 0.2497 0.2497-0.7424 (  5534 PWs)   bands (ev):

   -12.0481 -11.9014 -11.4958 -11.2641 -11.1755 -11.1726 -11.1077 -11.1054
   -11.0782 -11.0746  -8.3106  -8.0234  -6.7182  -6.5125   1.5235   2.1187
     3.9383   4.4491   4.5041   6.1102   6.3926   7.7619   7.7826   7.8211
     7.8860   8.0062

          k = 0.2497-0.4994 0.0000 (  5564 PWs)   bands (ev):

   -11.8506 -11.8505 -11.2690 -11.2690 -11.2584 -11.2584 -11.1212 -11.1212
   -11.0833 -11.0833  -8.6843  -8.6835  -7.3584  -7.3581   2.9257   2.9259
     5.7307   5.7322   6.0020   6.0029   7.0869   7.0869   7.6730   7.6736
     8.2380   8.2384

          k = 0.2497-0.4994 0.3712 (  5552 PWs)   bands (ev):

   -11.7865 -11.7864 -11.4759 -11.4759 -11.1944 -11.1943 -11.1285 -11.1285
   -11.1112 -11.1111  -8.3615  -8.3608  -7.0170  -7.0165   2.3421   2.3427
     4.7555   4.7559   5.6088   5.6095   7.1461   7.1466   7.7556   7.7565
     8.2708   8.2708

          k = 0.2497-0.4994-0.7424 (  5540 PWs)   bands (ev):

   -11.9896 -11.9896 -11.3728 -11.3728 -11.1732 -11.1732 -11.1055 -11.1055
   -11.0761 -11.0761  -8.1405  -8.1405  -6.6201  -6.6201   1.5705   1.5705
     4.2376   4.2376   5.0977   5.0977   7.4600   7.4600   7.9567   7.9567
     8.0749   8.0749

          k =-0.4994-0.4994 0.0000 (  5572 PWs)   bands (ev):

   -11.8801 -11.8801 -11.2647 -11.2647 -11.2628 -11.2628 -11.1196 -11.1196
   -11.0790 -11.0790  -8.0627  -8.0627  -8.0314  -8.0313   3.4293   3.4293
     5.2402   5.2402   6.0504   6.0504   7.1121   7.1121   7.6064   7.6064
     8.1144   8.1144

          k =-0.4994-0.4994 0.3712 (  5520 PWs)   bands (ev):

   -11.6762 -11.6762 -11.6201 -11.6201 -11.1936 -11.1936 -11.1293 -11.1293
   -11.1126 -11.1126  -8.0108  -8.0108  -7.3721  -7.3721   2.2238   2.2238
     5.2915   5.2915   5.8379   5.8379   6.3311   6.3311   8.1167   8.1167
     8.1562   8.1562

          k =-0.4994-0.4994-0.7424 (  5528 PWs)   bands (ev):

   -11.9061 -11.9061 -11.5004 -11.5004 -11.1711 -11.1711 -11.1055 -11.1055
   -11.0799 -11.0799  -7.9471  -7.9471  -6.7535  -6.7535   1.2108   1.2108
     4.1922   4.1922   6.4338   6.4338   6.5256   6.5256   8.0545   8.0545
     8.1989   8.1989

          k = 0.2497-0.2497 0.0000 (  5560 PWs)   bands (ev):

   -11.9891 -11.6669 -11.2807 -11.2617 -11.2538 -11.2504 -11.1395 -11.1057
   -11.0879 -11.0795  -9.2526  -8.0095  -7.9791  -6.7817   1.8336   3.9876
     5.1267   5.5624   6.4582   6.5889   6.6898   7.3611   7.6415   7.7406
     8.1912   8.5125

          k = 0.2497-0.2497 0.3712 (  5568 PWs)   bands (ev):

   -11.8687 -11.6558 -11.6167 -11.3417 -11.2046 -11.1826 -11.1357 -11.1226
   -11.1214 -11.1019  -8.9125  -7.8055  -7.3284  -6.7009   1.7175   3.0840
     4.4198   5.4607   5.5992   5.6630   6.2425   7.2859   7.6411   7.8915
     8.1648   8.4809

          k = 0.2497-0.2497-0.7424 (  5534 PWs)   bands (ev):

   -12.0481 -11.9014 -11.4958 -11.2641 -11.1755 -11.1726 -11.1077 -11.1054
   -11.0782 -11.0746  -8.3106  -8.0234  -6.7182  -6.5125   1.5235   2.1187
     3.9383   4.4491   4.5041   6.1102   6.3926   7.7619   7.7826   7.8211
     7.8860   8.0062

     highest occupied level (ev):     8.9563

!    total energy              =    -447.58835164 Ry
     Harris-Foulkes estimate   =    -447.58835164 Ry
     estimated scf accuracy    <          6.8E-15 Ry

     The total energy is the sum of the following terms:

     one-electron contribution =    -125.02274579 Ry
     hartree contribution      =     101.32515193 Ry
     xc contribution           =    -122.08700715 Ry
     ewald contribution        =    -301.80375063 Ry

     convergence has been achieved in  11 iterations

     Forces acting on atoms (cartesian axes, Ry/au):

     atom    1 type  1   force =     0.00002738    0.00002738    0.00000000
     atom    2 type  1   force =    -0.00000647   -0.00000647    0.00000000
     atom    3 type  2   force =     0.00007378    0.00012118    0.00000000
     atom    4 type  2   force =     0.00012118    0.00007378    0.00000000
     atom    5 type  2   force =    -0.00013132   -0.00013132    0.00000000
     atom    6 type  2   force =    -0.00008456   -0.00008456    0.00000000

     Total force =     0.000301     Total SCF correction =     0.000000


     Computing stress (Cartesian axis) and pressure

          total   stress  (Ry/bohr**3)                   (kbar)     P=   -0.01
  -0.00000040   0.00000000   0.00000000         -0.06      0.00      0.00
   0.00000000  -0.00000040  -0.00000000          0.00     -0.06     -0.00
   0.00000000   0.00000000   0.00000058          0.00      0.00      0.09


     number of scf cycles    =   5
     number of bfgs steps    =   4

     enthalpy old            =    -447.5883513286 Ry
     enthalpy new            =    -447.5883516405 Ry

     CASE: enthalpy_new < enthalpy_old

     new trust radius        =       0.0002739278 bohr
     new conv_thr            =            1.0E-14 Ry

     new unit-cell volume =    510.50172 a.u.^3 (    75.64855 Ang^3 )
     density =      6.61629 g/cm^3

CELL_PARAMETERS (alat=  9.11000000)
   1.001256605   0.000000000   0.000000000
   0.000000000   1.001256605   0.000000000
   0.000000000   0.000000000   0.673521227

ATOMIC_POSITIONS (crystal)
Sn      -0.000289306  -0.000289306   0.000000000
Sn       0.499731029   0.499731029   0.500000000
O        0.806230222   0.192912581   0.500000000
O        0.192912581   0.806230222   0.500000000
O        0.306366602   0.306366602   0.000000000
O        0.693048873   0.693048873   0.000000000



     Writing output data file SnO2.save
     NEW-OLD atomic charge density approx. for the potential

     Check: negative/imaginary core charge=   -0.000002    0.000000
     extrapolated charge   51.99859, renormalised to   52.00000

     total cpu time spent up to now is      579.0 secs

     Self-consistent Calculation

     iteration #  1     ecut=    75.00 Ry     beta= 0.70
     Davidson diagonalization with overlap
     ethr =  1.00E-06,  avg # of iterations =  1.7

     Threshold (ethr) on eigenvalues was too large:
     Diagonalizing with lowered threshold

     Davidson diagonalization with overlap
     ethr =  2.42E-10,  avg # of iterations =  4.0

     total cpu time spent up to now is      595.3 secs

     total energy              =    -447.58835165 Ry
     Harris-Foulkes estimate   =    -447.59144993 Ry
     estimated scf accuracy    <       0.00000009 Ry

     iteration #  2     ecut=    75.00 Ry     beta= 0.70
     Davidson diagonalization with overlap
     ethr =  1.75E-10,  avg # of iterations =  4.0

     total cpu time spent up to now is      605.2 secs

     total energy              =    -447.58835175 Ry
     Harris-Foulkes estimate   =    -447.58835181 Ry
     estimated scf accuracy    <       0.00000016 Ry

     iteration #  3     ecut=    75.00 Ry     beta= 0.70
     Davidson diagonalization with overlap
     ethr =  1.75E-10,  avg # of iterations =  2.0

     total cpu time spent up to now is      612.6 secs

     total energy              =    -447.58835176 Ry
     Harris-Foulkes estimate   =    -447.58835177 Ry
     estimated scf accuracy    <       0.00000002 Ry

     iteration #  4     ecut=    75.00 Ry     beta= 0.70
     Davidson diagonalization with overlap
     ethr =  2.99E-11,  avg # of iterations =  2.0

     total cpu time spent up to now is      619.6 secs

     total energy              =    -447.58835176 Ry
     Harris-Foulkes estimate   =    -447.58835176 Ry
     estimated scf accuracy    <          5.1E-09 Ry

     iteration #  5     ecut=    75.00 Ry     beta= 0.70
     Davidson diagonalization with overlap
     ethr =  9.87E-12,  avg # of iterations =  2.0

     total cpu time spent up to now is      627.0 secs

     total energy              =    -447.58835176 Ry
     Harris-Foulkes estimate   =    -447.58835176 Ry
     estimated scf accuracy    <          9.8E-11 Ry

     iteration #  6     ecut=    75.00 Ry     beta= 0.70
     Davidson diagonalization with overlap
     ethr =  1.88E-13,  avg # of iterations =  3.4

     total cpu time spent up to now is      636.3 secs

     total energy              =    -447.58835176 Ry
     Harris-Foulkes estimate   =    -447.58835176 Ry
     estimated scf accuracy    <          4.1E-11 Ry

     iteration #  7     ecut=    75.00 Ry     beta= 0.70
     Davidson diagonalization with overlap
     ethr =  1.00E-13,  avg # of iterations =  2.9

     total cpu time spent up to now is      643.5 secs

     total energy              =    -447.58835176 Ry
     Harris-Foulkes estimate   =    -447.58835176 Ry
[...]
        k(    3) = (   0.0000000   0.0000000  -0.7423816), wk =   0.0312500
        k(    4) = (   0.0000000   0.2496841   0.0000000), wk =   0.1250000
        k(    5) = (   0.0000000   0.2496841   0.3711908), wk =   0.2500000
        k(    6) = (   0.0000000   0.2496841  -0.7423816), wk =   0.1250000
        k(    7) = (   0.0000000  -0.4993682   0.0000000), wk =   0.0625000
        k(    8) = (   0.0000000  -0.4993682   0.3711908), wk =   0.1250000
        k(    9) = (   0.0000000  -0.4993682  -0.7423816), wk =   0.0625000
        k(   10) = (   0.2496841   0.2496841   0.0000000), wk =   0.0625000
        k(   11) = (   0.2496841   0.2496841   0.3711908), wk =   0.1250000
        k(   12) = (   0.2496841   0.2496841  -0.7423816), wk =   0.0625000
        k(   13) = (   0.2496841  -0.4993682   0.0000000), wk =   0.1250000
        k(   14) = (   0.2496841  -0.4993682   0.3711908), wk =   0.2500000
        k(   15) = (   0.2496841  -0.4993682  -0.7423816), wk =   0.1250000
        k(   16) = (  -0.4993682  -0.4993682   0.0000000), wk =   0.0312500
        k(   17) = (  -0.4993682  -0.4993682   0.3711908), wk =   0.0625000
        k(   18) = (  -0.4993682  -0.4993682  -0.7423816), wk =   0.0312500
        k(   19) = (   0.2496841  -0.2496841   0.0000000), wk =   0.0625000
        k(   20) = (   0.2496841  -0.2496841   0.3711908), wk =   0.1250000
        k(   21) = (   0.2496841  -0.2496841  -0.7423816), wk =   0.0625000

     Dense  grid:    44809 G-vectors     FFT dimensions: (  54,  54,  36)

     Estimated max dynamical RAM per process >      59.60 MB

     Estimated total dynamical RAM >     119.21 MB

     Check: negative/imaginary core charge=   -0.000002    0.000000

     Initial potential from superposition of free atoms

     starting charge   51.99690, renormalised to   52.00000
     Starting wfc are   34 randomized atomic wfcs

     Writing output data file SnO2.save

     total cpu time spent up to now is     1177.2 secs

     Self-consistent Calculation

     iteration #  1     ecut=    75.00 Ry     beta= 0.70
     Davidson diagonalization with overlap
     ethr =  1.00E-06,  avg # of iterations =  5.7

     total cpu time spent up to now is     1191.6 secs

     total energy              =    -446.90494046 Ry
     Harris-Foulkes estimate   =    -448.04417767 Ry
     estimated scf accuracy    <       1.54922032 Ry

     iteration #  2     ecut=    75.00 Ry     beta= 0.70
     Davidson diagonalization with overlap
     ethr =  2.98E-03,  avg # of iterations =  3.1

     total cpu time spent up to now is     1199.7 secs

     total energy              =    -447.27498805 Ry
     Harris-Foulkes estimate   =    -448.03281063 Ry
     estimated scf accuracy    <       1.55276509 Ry

     iteration #  3     ecut=    75.00 Ry     beta= 0.70
     Davidson diagonalization with overlap
     ethr =  2.98E-03,  avg # of iterations =  3.0

     total cpu time spent up to now is     1207.5 secs

     total energy              =    -447.58424346 Ry
     Harris-Foulkes estimate   =    -447.58506437 Ry
     estimated scf accuracy    <       0.00588864 Ry

     iteration #  4     ecut=    75.00 Ry     beta= 0.70
     Davidson diagonalization with overlap
     ethr =  1.13E-05,  avg # of iterations =  2.9

     total cpu time spent up to now is     1216.1 secs

     total energy              =    -447.58699602 Ry
     Harris-Foulkes estimate   =    -447.58718418 Ry
     estimated scf accuracy    <       0.00039590 Ry

     iteration #  5     ecut=    75.00 Ry     beta= 0.70
     Davidson diagonalization with overlap
     ethr =  7.61E-07,  avg # of iterations =  3.0

     total cpu time spent up to now is     1223.1 secs

     total energy              =    -447.58702527 Ry
     Harris-Foulkes estimate   =    -447.58703467 Ry
     estimated scf accuracy    <       0.00003050 Ry

     iteration #  6     ecut=    75.00 Ry     beta= 0.70
     Davidson diagonalization with overlap
     ethr =  5.86E-08,  avg # of iterations =  2.9

     total cpu time spent up to now is     1231.6 secs

     total energy              =    -447.58703234 Ry
     Harris-Foulkes estimate   =    -447.58703236 Ry
     estimated scf accuracy    <       0.00000170 Ry

     iteration #  7     ecut=    75.00 Ry     beta= 0.70
     Davidson diagonalization with overlap
     ethr =  3.28E-09,  avg # of iterations =  2.2

     total cpu time spent up to now is     1238.7 secs

     total energy              =    -447.58703255 Ry
     Harris-Foulkes estimate   =    -447.58703257 Ry
     estimated scf accuracy    <       0.00000005 Ry

     iteration #  8     ecut=    75.00 Ry     beta= 0.70
     Davidson diagonalization with overlap
     ethr =  9.13E-11,  avg # of iterations =  3.9

     total cpu time spent up to now is     1248.1 secs

     total energy              =    -447.58851317 Ry
     Harris-Foulkes estimate   =    -447.58851311 Ry
     estimated scf accuracy    <       0.00006779 Ry

     iteration #  9     ecut=    75.00 Ry     beta= 0.70
     Davidson diagonalization with overlap
     ethr =  9.13E-11,  avg # of iterations =  1.0

     total cpu time spent up to now is     1254.0 secs

     total energy              =    -447.58851176 Ry
     Harris-Foulkes estimate   =    -447.58851317 Ry
     estimated scf accuracy    <       0.00006793 Ry

     iteration # 10     ecut=    75.00 Ry     beta= 0.70
     Davidson diagonalization with overlap
     ethr =  9.13E-11,  avg # of iterations =  3.0

     total cpu time spent up to now is     1261.8 secs

     total energy              =    -447.58851794 Ry
     Harris-Foulkes estimate   =    -447.58851177 Ry
     estimated scf accuracy    <       0.00006390 Ry

     iteration # 11     ecut=    75.00 Ry     beta= 0.70
     Davidson diagonalization with overlap
     ethr =  9.13E-11,  avg # of iterations =  4.0

     total cpu time spent up to now is     1272.3 secs

     total energy              =    -447.58851305 Ry
     Harris-Foulkes estimate   =    -447.58851812 Ry
     estimated scf accuracy    <       0.00008230 Ry

     iteration # 12     ecut=    75.00 Ry     beta= 0.70
     Davidson diagonalization with overlap
     ethr =  9.13E-11,  avg # of iterations =  4.0

     total cpu time spent up to now is     1282.5 secs

     total energy              =    -447.58849865 Ry
     Harris-Foulkes estimate   =    -447.58851316 Ry
     estimated scf accuracy    <       0.00006798 Ry

     iteration # 13     ecut=    75.00 Ry     beta= 0.70
     Davidson diagonalization with overlap
     ethr =  9.13E-11,  avg # of iterations =  5.0

     total cpu time spent up to now is     1294.7 secs

     total energy              =    -447.58848653 Ry
     Harris-Foulkes estimate   =    -447.58849983 Ry
     estimated scf accuracy    <       0.00002974 Ry

     iteration # 14     ecut=    75.00 Ry     beta= 0.70
     Davidson diagonalization with overlap
     ethr =  9.13E-11,  avg # of iterations =  5.0

     total cpu time spent up to now is     1307.5 secs

     total energy              =    -447.58848935 Ry
     Harris-Foulkes estimate   =    -447.58848979 Ry
     estimated scf accuracy    <       0.00000074 Ry

     iteration # 15     ecut=    75.00 Ry     beta= 0.70
     Davidson diagonalization with overlap
     ethr =  9.13E-11,  avg # of iterations =  4.3

     total cpu time spent up to now is     1318.7 secs

     total energy              =    -447.58848946 Ry
     Harris-Foulkes estimate   =    -447.58848981 Ry
     estimated scf accuracy    <       0.00000078 Ry

     iteration # 16     ecut=    75.00 Ry     beta= 0.70
     Davidson diagonalization with overlap
     ethr =  9.13E-11,  avg # of iterations =  4.0

     total cpu time spent up to now is     1328.8 secs

     total energy              =    -447.58848954 Ry
     Harris-Foulkes estimate   =    -447.58848955 Ry
     estimated scf accuracy    <       0.00000001 Ry

     iteration # 17     ecut=    75.00 Ry     beta= 0.70
     Davidson diagonalization with overlap
     ethr =  2.76E-11,  avg # of iterations =  2.9

     total cpu time spent up to now is     1336.5 secs

     total energy              =    -447.58848954 Ry
     Harris-Foulkes estimate   =    -447.58848954 Ry
     estimated scf accuracy    <          5.8E-12 Ry

     iteration # 18     ecut=    75.00 Ry     beta= 0.70
     Davidson diagonalization with overlap
     ethr =  1.00E-13,  avg # of iterations =  3.5

     total cpu time spent up to now is     1345.3 secs

     total energy              =    -447.58848954 Ry
     Harris-Foulkes estimate   =    -447.58848954 Ry
     estimated scf accuracy    <          2.6E-12 Ry

     iteration # 19     ecut=    75.00 Ry     beta= 0.70
     Davidson diagonalization with overlap
     ethr =  1.00E-13,  avg # of iterations =  1.0

     total cpu time spent up to now is     1351.2 secs

     total energy              =    -447.58848954 Ry
     Harris-Foulkes estimate   =    -447.58848954 Ry
     estimated scf accuracy    <          1.2E-12 Ry

     iteration # 20     ecut=    75.00 Ry     beta= 0.70
     Davidson diagonalization with overlap
     ethr =  1.00E-13,  avg # of iterations =  1.0

     total cpu time spent up to now is     1357.2 secs

     total energy              =    -447.58848954 Ry
     Harris-Foulkes estimate   =    -447.58848954 Ry
     estimated scf accuracy    <          8.3E-14 Ry

     iteration # 21     ecut=    75.00 Ry     beta= 0.70
     Davidson diagonalization with overlap
     ethr =  1.00E-13,  avg # of iterations =  1.0

     total cpu time spent up to now is     1363.2 secs

     End of self-consistent calculation

          k = 0.0000 0.0000 0.0000 (  5609 PWs)   bands (ev):

   -12.1151 -11.4872 -11.2882 -11.2602 -11.2602 -11.1810 -11.1585 -11.0912
   -11.0795 -11.0795  -9.6522  -7.9265  -7.9265  -6.4492   0.9928   5.0779
     5.0780   5.1716   6.0742   6.9530   6.9955   7.6774   7.6774   8.2498
     8.2498   8.9569

          k = 0.0000 0.0000 0.3712 (  5593 PWs)   bands (ev):

   -11.8847 -11.6124 -11.6124 -11.3097 -11.2055 -11.1937 -11.1410 -11.1276
   -11.1276 -11.0936  -9.2821  -7.2840  -7.2840  -6.8695   1.0400   4.3814
     4.8457   5.5186   5.5186   6.2081   6.2081   6.4001   6.4613   8.1620
     8.1620   8.5128

          k = 0.0000 0.0000-0.7424 (  5592 PWs)   bands (ev):

   -11.8958 -11.8958 -11.4874 -11.4874 -11.1687 -11.1687 -11.1098 -11.1098
   -11.0836 -11.0836  -8.0971  -8.0971  -6.6824  -6.6824   1.9113   1.9113
     4.8993   4.8993   5.2561   5.2561   6.3729   6.3729   7.4549   7.4549
     7.7869   7.7869

          k = 0.0000 0.2497 0.0000 (  5623 PWs)   bands (ev):

   -12.0345 -11.5770 -11.2854 -11.2569 -11.2567 -11.2329 -11.1474 -11.0997
   -11.0834 -11.0833  -9.4641  -8.2767  -7.6443  -6.5760   1.4025   4.0843
     5.3460   5.3880   6.3878   6.6377   7.1702   7.3427   7.6982   7.7314
     8.2790   8.6932

          k = 0.0000 0.2497 0.3712 (  5610 PWs)   bands (ev):

   -11.8852 -11.7094 -11.5356 -11.3065 -11.2024 -11.1894 -11.1367 -11.1225
   -11.1217 -11.0978  -9.1153  -7.8348  -7.1107  -6.6749   1.4428   3.8681
     4.2759   4.6223   5.9224   5.9954   6.4848   7.0349   7.1974   8.0843
     8.1096   8.4844

          k = 0.0000 0.2497-0.7424 (  5582 PWs)   bands (ev):

   -11.9848 -11.9848 -11.3642 -11.3642 -11.1721 -11.1721 -11.1073 -11.1073
   -11.0778 -11.0778  -8.2066  -8.2066  -6.5940  -6.5940   2.0110   2.0110
     4.2164   4.2164   4.9961   4.9961   7.1583   7.1583   7.6488   7.6488
     7.8894   7.8894

          k = 0.0000-0.4994 0.0000 (  5618 PWs)   bands (ev):

   -11.8184 -11.8184 -11.2736 -11.2736 -11.2533 -11.2533 -11.1223 -11.1223
   -11.0874 -11.0874  -8.9407  -8.9406  -7.0466  -7.0466   2.5478   2.5479
     5.9581   5.9582   6.0889   6.0891   7.0729   7.0729   7.7373   7.7373
     8.3681   8.3682

          k = 0.0000-0.4994 0.3712 (  5614 PWs)   bands (ev):

   -11.8342 -11.8342 -11.3922 -11.3922 -11.1946 -11.1946 -11.1259 -11.1259
   -11.1087 -11.1087  -8.5890  -8.5890  -6.7849  -6.7849   2.5339   2.5340
     4.1085   4.1085   5.8957   5.8958   7.4292   7.4293   7.6265   7.6265
     8.2002   8.2002

          k = 0.0000-0.4994-0.7424 (  5572 PWs)   bands (ev):

   -12.0477 -12.0477 -11.2724 -11.2724 -11.1685 -11.1685 -11.1050 -11.1050
   -11.0718 -11.0718  -8.3092  -8.3092  -6.5143  -6.5143   2.1641   2.1641
     3.6202   3.6202   4.9397   4.9397   7.2946   7.2946   7.9704   7.9704
     8.1951   8.1951

          k = 0.2497 0.2497 0.0000 (  5620 PWs)   bands (ev):

   -11.9887 -11.6663 -11.2802 -11.2612 -11.2533 -11.2500 -11.1390 -11.1052
   -11.0874 -11.0790  -9.2521  -8.0089  -7.9786  -6.7808   1.8339   3.9881
     5.1273   5.5626   6.4586   6.5892   6.6903   7.3615   7.6418   7.7409
     8.1918   8.5130

          k = 0.2497 0.2497 0.3712 (  5609 PWs)   bands (ev):

   -11.8683 -11.6553 -11.6161 -11.3412 -11.2042 -11.1822 -11.1352 -11.1221
   -11.1209 -11.1014  -8.9120  -7.8048  -7.3280  -6.7002   1.7178   3.0844
     4.4203   5.4612   5.5996   5.6635   6.2431   7.2864   7.6416   7.8922
     8.1654   8.4814

          k = 0.2497 0.2497-0.7424 (  5588 PWs)   bands (ev):

   -12.0475 -11.9007 -11.4955 -11.2636 -11.1750 -11.1721 -11.1073 -11.1049
   -11.0778 -11.0741  -8.3100  -8.0227  -6.7180  -6.5121   1.5239   2.1192
     3.9387   4.4497   4.5046   6.1111   6.3929   7.7624   7.7831   7.8216
     7.8866   8.0068

          k = 0.2497-0.4994 0.0000 (  5594 PWs)   bands (ev):

   -11.8501 -11.8500 -11.2685 -11.2685 -11.2579 -11.2579 -11.1207 -11.1207
   -11.0828 -11.0828  -8.6834  -8.6834  -7.3575  -7.3575   2.9262   2.9263
     5.7320   5.7321   6.0028   6.0028   7.0872   7.0872   7.6737   7.6737
     8.2388   8.2388

          k = 0.2497-0.4994 0.3712 (  5598 PWs)   bands (ev):

   -11.7860 -11.7860 -11.4753 -11.4753 -11.1939 -11.1939 -11.1280 -11.1280
   -11.1107 -11.1107  -8.3606  -8.3606  -7.0162  -7.0162   2.3427   2.3427
     4.7562   4.7562   5.6095   5.6096   7.1470   7.1470   7.7565   7.7566
     8.2713   8.2713

          k = 0.2497-0.4994-0.7424 (  5572 PWs)   bands (ev):

   -11.9890 -11.9890 -11.3725 -11.3725 -11.1727 -11.1727 -11.1050 -11.1050
   -11.0756 -11.0756  -8.1398  -8.1398  -6.6198  -6.6198   1.5709   1.5709
     4.2381   4.2381   5.0984   5.0984   7.4606   7.4606   7.9574   7.9574
     8.0755   8.0755

          k =-0.4994-0.4994 0.0000 (  5636 PWs)   bands (ev):

   -11.8797 -11.8797 -11.2643 -11.2643 -11.2623 -11.2623 -11.1191 -11.1191
   -11.0785 -11.0785  -8.0620  -8.0620  -8.0308  -8.0308   3.4297   3.4297
     5.2408   5.2408   6.0507   6.0507   7.1123   7.1123   7.6066   7.6066
     8.1150   8.1150

          k =-0.4994-0.4994 0.3712 (  5584 PWs)   bands (ev):

   -11.6759 -11.6759 -11.6195 -11.6195 -11.1931 -11.1931 -11.1288 -11.1288
   -11.1121 -11.1121  -8.0100  -8.0100  -7.3717  -7.3717   2.2241   2.2241
     5.2918   5.2918   5.8384   5.8384   6.3318   6.3318   8.1171   8.1171
     8.1568   8.1568

          k =-0.4994-0.4994-0.7424 (  5592 PWs)   bands (ev):

   -11.9054 -11.9054 -11.5001 -11.5001 -11.1705 -11.1705 -11.1050 -11.1050
   -11.0794 -11.0794  -7.9463  -7.9463  -6.7532  -6.7532   1.2111   1.2111
     4.1926   4.1926   6.4341   6.4341   6.5267   6.5267   8.0551   8.0551
     8.1994   8.1994

          k = 0.2497-0.2497 0.0000 (  5620 PWs)   bands (ev):

   -11.9887 -11.6663 -11.2802 -11.2612 -11.2533 -11.2500 -11.1390 -11.1052
   -11.0874 -11.0790  -9.2521  -8.0089  -7.9786  -6.7808   1.8339   3.9881
     5.1273   5.5626   6.4586   6.5892   6.6903   7.3615   7.6418   7.7409
     8.1918   8.5130

          k = 0.2497-0.2497 0.3712 (  5609 PWs)   bands (ev):

   -11.8683 -11.6553 -11.6161 -11.3412 -11.2042 -11.1822 -11.1352 -11.1221
   -11.1209 -11.1014  -8.9120  -7.8048  -7.3280  -6.7002   1.7178   3.0844
     4.4203   5.4612   5.5996   5.6635   6.2431   7.2864   7.6416   7.8922
     8.1654   8.4814

          k = 0.2497-0.2497-0.7424 (  5588 PWs)   bands (ev):

   -12.0475 -11.9007 -11.4955 -11.2636 -11.1750 -11.1721 -11.1073 -11.1049
   -11.0778 -11.0741  -8.3100  -8.0227  -6.7180  -6.5121   1.5239   2.1192
     3.9387   4.4497   4.5046   6.1111   6.3929   7.7624   7.7831   7.8216
     7.8866   8.0068

     highest occupied level (ev):     8.9569

!    total energy              =    -447.58848954 Ry
     Harris-Foulkes estimate   =    -447.58848954 Ry
     estimated scf accuracy    <          7.2E-15 Ry

     The total energy is the sum of the following terms:

     one-electron contribution =    -125.01248407 Ry
     hartree contribution      =     101.32102027 Ry
     xc contribution           =    -122.08714764 Ry
     ewald contribution        =    -301.80987809 Ry

     convergence has been achieved in  21 iterations

     Forces acting on atoms (cartesian axes, Ry/au):

     atom    1 type  1   force =    -0.00000507   -0.00000507    0.00000000
     atom    2 type  1   force =    -0.00000017   -0.00000017    0.00000000
     atom    3 type  2   force =     0.00000404   -0.00000357    0.00000000
     atom    4 type  2   force =    -0.00000357    0.00000404    0.00000000
     atom    5 type  2   force =     0.00000619    0.00000619    0.00000000
     atom    6 type  2   force =    -0.00000143   -0.00000143    0.00000000

     Total force =     0.000014     Total SCF correction =     0.000000


     Computing stress (Cartesian axis) and pressure

          total   stress  (Ry/bohr**3)                   (kbar)     P=    0.46
   0.00000247   0.00000000   0.00000000          0.36      0.00      0.00
   0.00000000   0.00000247   0.00000000          0.00      0.36      0.00
   0.00000000   0.00000000   0.00000450          0.00      0.00      0.66


     Writing output data file SnO2.save
 
     init_run     :      8.04s CPU      8.21s WALL (       2 calls)
     electrons    :   1201.26s CPU   1237.18s WALL (      13 calls)
     update_pot   :     28.62s CPU     29.17s WALL (      11 calls)
     forces       :     25.72s CPU     28.02s WALL (      13 calls)
     stress       :     61.49s CPU     62.39s WALL (      13 calls)

     Called by init_run:
     wfcinit      :      5.58s CPU      5.71s WALL (       2 calls)
     potinit      :      0.94s CPU      0.95s WALL (       2 calls)
     hinit0       :      1.47s CPU      1.49s WALL (       2 calls)

     Called by electrons:
     c_bands      :   1039.38s CPU   1071.01s WALL (     163 calls)
     sum_band     :    152.71s CPU    156.28s WALL (     163 calls)
     v_of_rho     :      8.25s CPU      8.49s WALL (     166 calls)
     mix_rho      :      1.33s CPU      1.44s WALL (     163 calls)

     Called by c_bands:
     init_us_2    :     22.02s CPU     22.67s WALL (    7434 calls)
     cegterg      :    930.13s CPU    961.01s WALL (    3423 calls)

     Called by sum_band:

     Called by *egterg:
     h_psi        :    799.97s CPU    822.11s WALL (   11504 calls)
     g_psi        :     10.85s CPU     10.91s WALL (    8039 calls)
     cdiaghg      :     24.55s CPU     24.09s WALL (   11021 calls)

     Called by h_psi:
     h_psi:pot    :    796.17s CPU    818.23s WALL (   11504 calls)
     h_psi:calbec :     45.31s CPU     43.44s WALL (   11504 calls)
     vloc_psi     :    713.50s CPU    732.41s WALL (   11504 calls)
     add_vuspsi   :     37.33s CPU     42.30s WALL (   11504 calls)

     General routines
     calbec       :     52.01s CPU     49.79s WALL (   12869 calls)
     fft          :      4.62s CPU      5.41s WALL (    2006 calls)
     ffts         :      0.37s CPU      0.38s WALL (     163 calls)
     fftw         :    799.44s CPU    809.32s WALL (  561832 calls)
 
     Parallel routines
     fft_scatt_xy :     48.99s CPU     77.80s WALL (  564001 calls)
     fft_scatt_yz :    281.47s CPU    103.50s WALL (  564001 calls)
 
     PWSCF        : 22m 5.77s CPU    22m47.60s WALL

 
   This run was terminated on:   5:27:30  10May2018            

=------------------------------------------------------------------------------=
   JOB DONE.
=------------------------------------------------------------------------------=
