
     Program PWSCF v.6.2.2 starts on  8Apr2018 at 18:35:12 

     This program is part of the open-source Quantum ESPRESSO suite
     for quantum simulation of materials; please cite
         "P. Giannozzi et al., J. Phys.:Condens. Matter 21 395502 (2009);
         "P. Giannozzi et al., J. Phys.:Condens. Matter 29 465901 (2017);
          URL http://www.quantum-espresso.org", 
     in publications or presentations arising from this work. More details at
     http://www.quantum-espresso.org/quote

     Parallel version (MPI), running on     2 processors

     MPI processes distributed on     1 nodes
     R & G space division:  proc/nbgrp/npool/nimage =       2
     Reading input from Conv_acell-kp.in

     Current dimensions of program PWSCF are:
     Max number of different atomic species (ntypx) = 10
     Max number of k-points (npk) =  40000
     Max angular momentum in pseudopotentials (lmaxx) =  3

     Subspace diagonalization in iterative solution of the eigenvalue problem:
     a serial algorithm will be used

 
     Parallelization info
     --------------------
     sticks:   dense  smooth     PW     G-vecs:    dense   smooth      PW
     Min         332     332    110                 4313     4313     791
     Max         333     333    111                 4314     4314     792
     Sum         665     665    221                 8627     8627    1583
 


     bravais-lattice index     =            6
     lattice parameter (alat)  =       9.1100  a.u.
     unit-cell volume          =     506.5589 (a.u.)^3
     number of atoms/cell      =            6
     number of atomic types    =            2
     number of electrons       =        52.00
     number of Kohn-Sham states=           26
     kinetic-energy cutoff     =      25.0000  Ry
     charge density cutoff     =     100.0000  Ry
     convergence threshold     =      1.0E-12
     mixing beta               =       0.7000
     number of iterations used =            8  plain     mixing
     Exchange-correlation      = PBE ( 1  4  3  4 0 0)
     nstep                     =           50


     celldm(1)=   9.110000  celldm(2)=   0.000000  celldm(3)=   0.670000
     celldm(4)=   0.000000  celldm(5)=   0.000000  celldm(6)=   0.000000

     crystal axes: (cart. coord. in units of alat)
               a(1) = (   1.000000   0.000000   0.000000 )  
               a(2) = (   0.000000   1.000000   0.000000 )  
               a(3) = (   0.000000   0.000000   0.670000 )  

     reciprocal axes: (cart. coord. in units 2 pi/alat)
               b(1) = (  1.000000  0.000000  0.000000 )  
               b(2) = (  0.000000  1.000000  0.000000 )  
               b(3) = (  0.000000  0.000000  1.492537 )  


     PseudoPot. # 1 for Sn read from file:
     ../../Pseudo_potentials/Sn_PBE.upf
     MD5 check sum: 78e6386ae56e929f0568ae8bf606a80c
     Pseudo is Norm-conserving + core correction, Zval = 14.0
     Generated using ONCVPSP code by D. R. Hamann
     Using radial grid of 1628 points,  6 beta functions with: 
                l(1) =   0
                l(2) =   0
                l(3) =   1
                l(4) =   1
                l(5) =   2
                l(6) =   2

     PseudoPot. # 2 for O  read from file:
     ../../Pseudo_potentials/O_PBE.upf
     MD5 check sum: 3e3f909f7470e8921608ab6b1f57bbae
     Pseudo is Norm-conserving + core correction, Zval =  6.0
     Generated using ONCVPSP code by D. R. Hamann
     Using radial grid of  936 points,  5 beta functions with: 
                l(1) =   0
                l(2) =   0
                l(3) =   1
                l(4) =   1
                l(5) =   2

     atomic species   valence    mass     pseudopotential
        Sn            14.00   118.71000     Sn( 1.00)
        O              6.00    15.99900     O ( 1.00)

      4 Sym. Ops. (no inversion) found



   Cartesian axes

     site n.     atom                  positions (alat units)
         1           Sn  tau(   1) = (   0.0000000   0.0000000   0.0000000  )
         2           Sn  tau(   2) = (   0.5000000   0.5000000   0.3350000  )
         3           O   tau(   3) = (   0.8060000   0.1930000   0.3350000  )
         4           O   tau(   4) = (   0.1930000   0.8060000   0.3350000  )
         5           O   tau(   5) = (   0.3060000   0.3060000   0.0000000  )
         6           O   tau(   6) = (   0.6930000   0.6930000   0.0000000  )

     number of k points=   456

     Number of k-points >= 100: set verbosity='high' to print them.

     Dense  grid:     8627 G-vectors     FFT dimensions: (  30,  30,  20)

     Estimated max dynamical RAM per process >     106.96 MB

     Estimated total dynamical RAM >     213.92 MB

     Check: negative/imaginary core charge=   -0.002394    0.000000

     Initial potential from superposition of free atoms
     Check: negative starting charge=   -0.009566

     starting charge   51.99690, renormalised to   52.00000

     negative rho (up, down):  9.566E-03 0.000E+00
     Starting wfc are   34 randomized atomic wfcs

     total cpu time spent up to now is       13.6 secs

     Self-consistent Calculation

     iteration #  1     ecut=    25.00 Ry     beta= 0.70
     Davidson diagonalization with overlap
     ethr =  1.00E-02,  avg # of iterations =  2.0

     negative rho (up, down):  2.854E-03 0.000E+00

     total cpu time spent up to now is       50.3 secs

     total energy              =    -429.62360878 Ry
     Harris-Foulkes estimate   =    -432.65466241 Ry
     estimated scf accuracy    <       4.17268469 Ry

     iteration #  2     ecut=    25.00 Ry     beta= 0.70
     Davidson diagonalization with overlap
     ethr =  8.02E-03,  avg # of iterations =  2.0

     negative rho (up, down):  8.827E-04 0.000E+00

     total cpu time spent up to now is       83.9 secs

     total energy              =    -430.39907362 Ry
     Harris-Foulkes estimate   =    -430.54008301 Ry
     estimated scf accuracy    <       0.24986987 Ry

     iteration #  3     ecut=    25.00 Ry     beta= 0.70
     Davidson diagonalization with overlap
     ethr =  4.81E-04,  avg # of iterations =  2.8

     negative rho (up, down):  1.593E-04 0.000E+00

     total cpu time spent up to now is      119.9 secs

     total energy              =    -430.44505317 Ry
     Harris-Foulkes estimate   =    -430.45889235 Ry
     estimated scf accuracy    <       0.02968884 Ry

     iteration #  4     ecut=    25.00 Ry     beta= 0.70
     Davidson diagonalization with overlap
     ethr =  5.71E-05,  avg # of iterations =  2.9

     total cpu time spent up to now is      156.1 secs

     total energy              =    -430.45049795 Ry
     Harris-Foulkes estimate   =    -430.45232397 Ry
     estimated scf accuracy    <       0.00356771 Ry

     iteration #  5     ecut=    25.00 Ry     beta= 0.70
     Davidson diagonalization with overlap
     ethr =  6.86E-06,  avg # of iterations =  3.0

     total cpu time spent up to now is      192.9 secs

     total energy              =    -430.45133508 Ry
     Harris-Foulkes estimate   =    -430.45142076 Ry
     estimated scf accuracy    <       0.00017557 Ry

     iteration #  6     ecut=    25.00 Ry     beta= 0.70
     Davidson diagonalization with overlap
     ethr =  3.38E-07,  avg # of iterations =  3.1

     total cpu time spent up to now is      230.3 secs

     total energy              =    -430.45137853 Ry
     Harris-Foulkes estimate   =    -430.45138536 Ry
     estimated scf accuracy    <       0.00001640 Ry

     iteration #  7     ecut=    25.00 Ry     beta= 0.70
     Davidson diagonalization with overlap
     ethr =  3.15E-08,  avg # of iterations =  3.2

     total cpu time spent up to now is      265.5 secs

     total energy              =    -430.45138017 Ry
     Harris-Foulkes estimate   =    -430.45138227 Ry
     estimated scf accuracy    <       0.00000485 Ry

     iteration #  8     ecut=    25.00 Ry     beta= 0.70
     Davidson diagonalization with overlap
     ethr =  9.33E-09,  avg # of iterations =  2.7

     total cpu time spent up to now is      299.6 secs

     total energy              =    -430.45138102 Ry
     Harris-Foulkes estimate   =    -430.45138103 Ry
     estimated scf accuracy    <       0.00000003 Ry

     iteration #  9     ecut=    25.00 Ry     beta= 0.70
     Davidson diagonalization with overlap
     ethr =  5.57E-11,  avg # of iterations =  3.9

     total cpu time spent up to now is      347.4 secs

     total energy              =    -430.45138104 Ry
     Harris-Foulkes estimate   =    -430.45138104 Ry
     estimated scf accuracy    <       0.00000002 Ry

     iteration # 10     ecut=    25.00 Ry     beta= 0.70
     Davidson diagonalization with overlap
     ethr =  3.93E-11,  avg # of iterations =  3.0

     total cpu time spent up to now is      381.3 secs

     total energy              =    -430.45138104 Ry
     Harris-Foulkes estimate   =    -430.45138104 Ry
     estimated scf accuracy    <          2.7E-09 Ry

     iteration # 11     ecut=    25.00 Ry     beta= 0.70
     Davidson diagonalization with overlap
     ethr =  5.17E-12,  avg # of iterations =  3.1

     total cpu time spent up to now is      418.6 secs

     total energy              =    -430.45138104 Ry
     Harris-Foulkes estimate   =    -430.45138104 Ry
     estimated scf accuracy    <          1.6E-10 Ry

     iteration # 12     ecut=    25.00 Ry     beta= 0.70
     Davidson diagonalization with overlap
     ethr =  3.16E-13,  avg # of iterations =  3.1

     total cpu time spent up to now is      453.5 secs

     total energy              =    -430.45138104 Ry
     Harris-Foulkes estimate   =    -430.45138104 Ry
     estimated scf accuracy    <          1.5E-11 Ry

     iteration # 13     ecut=    25.00 Ry     beta= 0.70
     Davidson diagonalization with overlap
     ethr =  1.00E-13,  avg # of iterations =  2.0

     total cpu time spent up to now is      483.8 secs

     End of self-consistent calculation

     Number of k-points >= 100: set verbosity='high' to print the bands.

     highest occupied level (ev):     9.8204

!    total energy              =    -430.45138104 Ry
     Harris-Foulkes estimate   =    -430.45138104 Ry
     estimated scf accuracy    <          2.1E-13 Ry

     The total energy is the sum of the following terms:

     one-electron contribution =     -96.64306231 Ry
     hartree contribution      =      85.50877091 Ry
     xc contribution           =    -116.83575130 Ry
     ewald contribution        =    -302.48133834 Ry

     convergence has been achieved in  13 iterations

     Forces acting on atoms (cartesian axes, Ry/au):

     atom    1 type  1   force =     0.00043215    0.00043215    0.00000000
     atom    2 type  1   force =    -0.00003298   -0.00003298    0.00000000
     atom    3 type  2   force =     0.01401866   -0.01353368    0.00000000
     atom    4 type  2   force =    -0.01353368    0.01401866    0.00000000
     atom    5 type  2   force =     0.01334903    0.01334903    0.00000000
     atom    6 type  2   force =    -0.01423318   -0.01423318    0.00000000

     Total force =     0.039004     Total SCF correction =     0.000002


     Computing stress (Cartesian axis) and pressure

          total   stress  (Ry/bohr**3)                   (kbar)     P=-9552.30
  -0.06528498   0.00000027  -0.00000000      -9603.75      0.04     -0.00
   0.00000027  -0.06528498   0.00000000          0.04  -9603.75      0.00
   0.00000000   0.00000000  -0.06423574          0.00      0.00  -9449.40


     BFGS Geometry Optimization

     number of scf cycles    =   1
     number of bfgs steps    =   0

     enthalpy new            =    -430.4513810392 Ry

     new trust radius        =       0.5000000000 bohr
     new conv_thr            =            1.0E-12 Ry

     new unit-cell volume =    356.52775 a.u.^3 (    52.83196 Ang^3 )
     density =      9.47368 g/cm^3

CELL_PARAMETERS (alat=  9.11000000)
   0.888922769   0.000000000   0.000000000
   0.000000000   0.888922769   0.000000000
   0.000000000   0.000000000   0.596774344

ATOMIC_POSITIONS (crystal)
Sn       0.000003228   0.000003228   0.000000000
Sn       0.499999754   0.499999754   0.500000000
O        0.806104727   0.192898896   0.500000000
O        0.192898896   0.806104727   0.500000000
O        0.306099725   0.306099725   0.000000000
O        0.692893670   0.692893670   0.000000000



     Writing output data file SnO2.save
     Check: negative starting charge=   -0.009566
     NEW-OLD atomic charge density approx. for the potential

     Check: negative/imaginary core charge=   -0.001408    0.000000
     Check: negative starting charge=   -0.001844

     negative rho (up, down):  1.260E+00 0.000E+00
     extrapolated charge   30.11908, renormalised to   52.00000

     total cpu time spent up to now is      496.8 secs

     Self-consistent Calculation

     iteration #  1     ecut=    25.00 Ry     beta= 0.70
     Davidson diagonalization with overlap
     c_bands:  1 eigenvalues not converged
     ethr =  1.00E-06,  avg # of iterations = 12.3

     total cpu time spent up to now is      613.4 secs

     total energy              =    -402.05499551 Ry
     Harris-Foulkes estimate   =    -475.65853740 Ry
     estimated scf accuracy    <      58.33221211 Ry

     iteration #  2     ecut=    25.00 Ry     beta= 0.70
     Davidson diagonalization with overlap
     ethr =  1.00E-02,  avg # of iterations =  5.4

     total cpu time spent up to now is      673.0 secs

     total energy              =    -436.53330807 Ry
     Harris-Foulkes estimate   =    -447.72783622 Ry
     estimated scf accuracy    <      17.32805341 Ry

     iteration #  3     ecut=    25.00 Ry     beta= 0.70
     Davidson diagonalization with overlap
     ethr =  1.00E-02,  avg # of iterations =  2.6

     total cpu time spent up to now is      713.0 secs

     total energy              =    -439.52503664 Ry
     Harris-Foulkes estimate   =    -439.89655865 Ry
     estimated scf accuracy    <       0.69737087 Ry

     iteration #  4     ecut=    25.00 Ry     beta= 0.70
     Davidson diagonalization with overlap
     ethr =  1.34E-03,  avg # of iterations =  1.9

     total cpu time spent up to now is      741.0 secs

     total energy              =    -439.46836694 Ry
     Harris-Foulkes estimate   =    -439.57192529 Ry
     estimated scf accuracy    <       0.16525715 Ry

     iteration #  5     ecut=    25.00 Ry     beta= 0.70
     Davidson diagonalization with overlap
     ethr =  3.18E-04,  avg # of iterations =  2.0

     negative rho (up, down):  1.155E-04 0.000E+00

     total cpu time spent up to now is      772.7 secs

     total energy              =    -439.46809169 Ry
     Harris-Foulkes estimate   =    -439.48608194 Ry
     estimated scf accuracy    <       0.02405218 Ry

     iteration #  6     ecut=    25.00 Ry     beta= 0.70
     Davidson diagonalization with overlap
     ethr =  4.63E-05,  avg # of iterations =  2.0

     negative rho (up, down):  3.768E-04 0.000E+00

     total cpu time spent up to now is      809.8 secs

     total energy              =    -439.47213295 Ry
     Harris-Foulkes estimate   =    -439.47291936 Ry
     estimated scf accuracy    <       0.00147504 Ry

     iteration #  7     ecut=    25.00 Ry     beta= 0.70
     Davidson diagonalization with overlap
     ethr =  2.84E-06,  avg # of iterations =  2.1

     negative rho (up, down):  4.967E-05 0.000E+00

     total cpu time spent up to now is      845.7 secs

     total energy              =    -439.47355718 Ry
     Harris-Foulkes estimate   =    -439.47360888 Ry
     estimated scf accuracy    <       0.00008696 Ry

     iteration #  8     ecut=    25.00 Ry     beta= 0.70
     Davidson diagonalization with overlap
     ethr =  1.67E-07,  avg # of iterations =  2.0

     total cpu time spent up to now is      880.6 secs

     total energy              =    -439.47356649 Ry
     Harris-Foulkes estimate   =    -439.47357038 Ry
     estimated scf accuracy    <       0.00000667 Ry

     iteration #  9     ecut=    25.00 Ry     beta= 0.70
     Davidson diagonalization with overlap
     ethr =  1.28E-08,  avg # of iterations =  2.5

     total cpu time spent up to now is      918.1 secs

     total energy              =    -439.47356740 Ry
     Harris-Foulkes estimate   =    -439.47356770 Ry
     estimated scf accuracy    <       0.00000053 Ry

     iteration # 10     ecut=    25.00 Ry     beta= 0.70
     Davidson diagonalization with overlap
     ethr =  1.01E-09,  avg # of iterations =  2.8

     total cpu time spent up to now is      953.8 secs

     total energy              =    -439.47356750 Ry
     Harris-Foulkes estimate   =    -439.47356753 Ry
     estimated scf accuracy    <       0.00000005 Ry

     iteration # 11     ecut=    25.00 Ry     beta= 0.70
     Davidson diagonalization with overlap
     ethr =  1.05E-10,  avg # of iterations =  2.5

     total cpu time spent up to now is      992.0 secs

     total energy              =    -439.47356751 Ry
     Harris-Foulkes estimate   =    -439.47356751 Ry
     estimated scf accuracy    <          1.0E-09 Ry

     iteration # 12     ecut=    25.00 Ry     beta= 0.70
     Davidson diagonalization with overlap
     ethr =  1.97E-12,  avg # of iterations =  2.8

     total cpu time spent up to now is     1029.9 secs

     total energy              =    -439.47356751 Ry
     Harris-Foulkes estimate   =    -439.47356751 Ry
     estimated scf accuracy    <          4.6E-11 Ry

     iteration # 13     ecut=    25.00 Ry     beta= 0.70
     Davidson diagonalization with overlap
     ethr =  1.00E-13,  avg # of iterations =  2.5

     total cpu time spent up to now is     1065.6 secs

     total energy              =    -439.47356751 Ry
     Harris-Foulkes estimate   =    -439.47356751 Ry
     estimated scf accuracy    <          3.9E-12 Ry

     iteration # 14     ecut=    25.00 Ry     beta= 0.70
     Davidson diagonalization with overlap
     ethr =  1.00E-13,  avg # of iterations =  1.0

     total cpu time spent up to now is     1091.7 secs

     End of self-consistent calculation

     Number of k-points >= 100: set verbosity='high' to print the bands.

     highest occupied level (ev):    16.0275

!    total energy              =    -439.47356751 Ry
     Harris-Foulkes estimate   =    -439.47356751 Ry
     estimated scf accuracy    <          1.8E-13 Ry

     The total energy is the sum of the following terms:

     one-electron contribution =     -56.67437460 Ry
     hartree contribution      =      78.93052679 Ry
     xc contribution           =    -121.61987932 Ry
     ewald contribution        =    -340.10984038 Ry

     convergence has been achieved in  14 iterations

     Forces acting on atoms (cartesian axes, Ry/au):

     atom    1 type  1   force =    -0.00332382   -0.00332382    0.00000000
     atom    2 type  1   force =    -0.00270147   -0.00270147    0.00000000
     atom    3 type  2   force =    -0.05020390    0.04938035    0.00000000
     atom    4 type  2   force =     0.04938035   -0.05020390    0.00000000
     atom    5 type  2   force =    -0.04636389   -0.04636389    0.00000000
     atom    6 type  2   force =     0.05321272    0.05321272    0.00000000

     Total force =     0.141127     Total SCF correction =     0.000001


     Computing stress (Cartesian axis) and pressure

          total   stress  (Ry/bohr**3)                   (kbar)     P=-7232.96
  -0.05023084   0.00000034   0.00000000      -7389.21      0.05      0.00
   0.00000034  -0.05023084   0.00000000          0.05  -7389.21      0.00
   0.00000000   0.00000000  -0.04704443          0.00      0.00  -6920.47


     number of scf cycles    =   2
     number of bfgs steps    =   1

     enthalpy old            =    -430.4513810392 Ry
     enthalpy new            =    -439.4735675079 Ry

     CASE: enthalpy_new < enthalpy_old

     new trust radius        =       0.7078299487 bohr
     new conv_thr            =            1.0E-12 Ry

     new unit-cell volume =    217.66597 a.u.^3 (    32.25477 Ang^3 )
     density =     15.51749 g/cm^3

CELL_PARAMETERS (alat=  9.11000000)
   0.722306921   0.000000000   0.000000000
   0.000000000   0.722306921   0.000000000
   0.000000000   0.000000000   0.551812907

ATOMIC_POSITIONS (crystal)
Sn      -0.000690538  -0.000690538   0.000000000
Sn       0.499482398   0.499482398   0.500000000
O        0.794719026   0.204066954   0.500000000
O        0.204066954   0.794719026   0.500000000
O        0.295536156   0.295536156   0.000000000
O        0.704886004   0.704886004   0.000000000



     Writing output data file SnO2.save
     Check: negative starting charge=   -0.001844
     NEW-OLD atomic charge density approx. for the potential

     Check: negative/imaginary core charge=   -0.000515    0.000000

     negative rho (up, down):  2.450E+00 0.000E+00
     extrapolated charge   18.82815, renormalised to   52.00000

     total cpu time spent up to now is     1105.1 secs

     Self-consistent Calculation

     iteration #  1     ecut=    25.00 Ry     beta= 0.70
     Davidson diagonalization with overlap
     ethr =  1.00E-06,  avg # of iterations = 10.9

     total cpu time spent up to now is     1222.9 secs

     total energy              =    -392.73658794 Ry
     Harris-Foulkes estimate   =    -483.46037065 Ry
     estimated scf accuracy    <     130.62882498 Ry

     iteration #  2     ecut=    25.00 Ry     beta= 0.70
     Davidson diagonalization with overlap
     ethr =  1.00E-02,  avg # of iterations =  5.0

     total cpu time spent up to now is     1283.2 secs

     total energy              =    -437.81526521 Ry
     Harris-Foulkes estimate   =    -448.31331599 Ry
     estimated scf accuracy    <      15.22563981 Ry

     iteration #  3     ecut=    25.00 Ry     beta= 0.70
     Davidson diagonalization with overlap
     ethr =  1.00E-02,  avg # of iterations =  2.9

     total cpu time spent up to now is     1324.4 secs

     total energy              =    -441.19748876 Ry
     Harris-Foulkes estimate   =    -441.36237747 Ry
     estimated scf accuracy    <       0.31687309 Ry

     iteration #  4     ecut=    25.00 Ry     beta= 0.70
     Davidson diagonalization with overlap
     ethr =  6.09E-04,  avg # of iterations =  2.0

     total cpu time spent up to now is     1356.8 secs

     total energy              =    -441.21095481 Ry
     Harris-Foulkes estimate   =    -441.23152025 Ry
     estimated scf accuracy    <       0.03605350 Ry

     iteration #  5     ecut=    25.00 Ry     beta= 0.70
     Davidson diagonalization with overlap
     ethr =  6.93E-05,  avg # of iterations =  2.0

     total cpu time spent up to now is     1386.9 secs

     total energy              =    -441.21293641 Ry
     Harris-Foulkes estimate   =    -441.21380618 Ry
     estimated scf accuracy    <       0.00161892 Ry

     iteration #  6     ecut=    25.00 Ry     beta= 0.70
     Davidson diagonalization with overlap
     ethr =  3.11E-06,  avg # of iterations =  2.0

     total cpu time spent up to now is     1421.2 secs

     total energy              =    -441.21316089 Ry
     Harris-Foulkes estimate   =    -441.21321409 Ry
     estimated scf accuracy    <       0.00009473 Ry

     iteration #  7     ecut=    25.00 Ry     beta= 0.70
     Davidson diagonalization with overlap
     ethr =  1.82E-07,  avg # of iterations =  3.0

     total cpu time spent up to now is     1459.5 secs

     total energy              =    -441.21318311 Ry
     Harris-Foulkes estimate   =    -441.21318488 Ry
     estimated scf accuracy    <       0.00000426 Ry

     iteration #  8     ecut=    25.00 Ry     beta= 0.70
     Davidson diagonalization with overlap
     ethr =  8.19E-09,  avg # of iterations =  2.0

     total cpu time spent up to now is     1494.0 secs

     total energy              =    -441.21318373 Ry
     Harris-Foulkes estimate   =    -441.21318392 Ry
     estimated scf accuracy    <       0.00000034 Ry

     iteration #  9     ecut=    25.00 Ry     beta= 0.70
     Davidson diagonalization with overlap
     ethr =  6.63E-10,  avg # of iterations =  2.4

     total cpu time spent up to now is     1528.8 secs

     total energy              =    -441.21318378 Ry
     Harris-Foulkes estimate   =    -441.21318380 Ry
     estimated scf accuracy    <       0.00000003 Ry

     iteration # 10     ecut=    25.00 Ry     beta= 0.70
     Davidson diagonalization with overlap
     ethr =  6.07E-11,  avg # of iterations =  2.0

     total cpu time spent up to now is     1565.3 secs

     total energy              =    -441.21318379 Ry
     Harris-Foulkes estimate   =    -441.21318379 Ry
     estimated scf accuracy    <          6.7E-10 Ry

     iteration # 11     ecut=    25.00 Ry     beta= 0.70
     Davidson diagonalization with overlap
     ethr =  1.29E-12,  avg # of iterations =  2.0

     total cpu time spent up to now is     1602.8 secs

     total energy              =    -441.21318379 Ry
     Harris-Foulkes estimate   =    -441.21318379 Ry
     estimated scf accuracy    <          5.0E-11 Ry

     iteration # 12     ecut=    25.00 Ry     beta= 0.70
     Davidson diagonalization with overlap
     ethr =  1.00E-13,  avg # of iterations =  2.0

     total cpu time spent up to now is     1639.2 secs

     total energy              =    -441.21318379 Ry
     Harris-Foulkes estimate   =    -441.21318379 Ry
     estimated scf accuracy    <          3.1E-12 Ry

     iteration # 13     ecut=    25.00 Ry     beta= 0.70
     Davidson diagonalization with overlap
     ethr =  1.00E-13,  avg # of iterations =  1.0

     total cpu time spent up to now is     1665.4 secs

     End of self-consistent calculation

     Number of k-points >= 100: set verbosity='high' to print the bands.

     highest occupied level (ev):    31.4577

!    total energy              =    -441.21318379 Ry
     Harris-Foulkes estimate   =    -441.21318379 Ry
     estimated scf accuracy    <          8.4E-14 Ry

     The total energy is the sum of the following terms:

     one-electron contribution =      29.81295678 Ry
     hartree contribution      =      61.37478639 Ry
     xc contribution           =    -127.50475512 Ry
     ewald contribution        =    -404.89617184 Ry

     convergence has been achieved in  13 iterations

     Forces acting on atoms (cartesian axes, Ry/au):

     atom    1 type  1   force =     0.05536506    0.05536506    0.00000000
     atom    2 type  1   force =     0.00845441    0.00845441    0.00000000
     atom    3 type  2   force =     0.65183994   -0.64771302    0.00000000
     atom    4 type  2   force =    -0.64771302    0.65183994    0.00000000
     atom    5 type  2   force =     0.61613414    0.61613414    0.00000000
     atom    6 type  2   force =    -0.68408052   -0.68408052    0.00000000

     Total force =     1.841278     Total SCF correction =     0.000001


     Computing stress (Cartesian axis) and pressure

          total   stress  (Ry/bohr**3)                   (kbar)     P= 6173.06
   0.05469892   0.00000381  -0.00000000       8046.49      0.56     -0.00
   0.00000381   0.05469892   0.00000000          0.56   8046.49      0.00
   0.00000000   0.00000000   0.01649306          0.00      0.00   2426.21


     number of scf cycles    =   3
     number of bfgs steps    =   2

     enthalpy old            =    -439.4735675079 Ry
     enthalpy new            =    -441.2131837923 Ry

     CASE: enthalpy_new < enthalpy_old

     new trust radius        =       0.6990172975 bohr
     new conv_thr            =            1.0E-12 Ry

     new unit-cell volume =    231.98499 a.u.^3 (    34.37663 Ang^3 )
     density =     14.55969 g/cm^3

CELL_PARAMETERS (alat=  9.11000000)
   0.853621511   0.000000000   0.000000000
   0.000000000   0.853621511   0.000000000
   0.000000000   0.000000000   0.421089151

ATOMIC_POSITIONS (crystal)
Sn       0.001753143   0.001753143   0.000000000
Sn       0.499826580   0.499826580   0.500000000
O        0.823470202   0.175496760   0.500000000
O        0.175496760   0.823470202   0.500000000
O        0.322727486   0.322727486   0.000000000
O        0.674725829   0.674725829   0.000000000



     Writing output data file SnO2.save
     NEW-OLD atomic charge density approx. for the potential

     Check: negative/imaginary core charge=   -0.000777    0.000000
     extrapolated charge   55.20945, renormalised to   52.00000

     total cpu time spent up to now is     1679.0 secs

     Self-consistent Calculation

     iteration #  1     ecut=    25.00 Ry     beta= 0.70
     Davidson diagonalization with overlap
     ethr =  1.00E-06,  avg # of iterations =  8.4

     total cpu time spent up to now is     1779.5 secs

     total energy              =    -437.41725863 Ry
     Harris-Foulkes estimate   =    -432.93196343 Ry
     estimated scf accuracy    <       0.46470410 Ry

     iteration #  2     ecut=    25.00 Ry     beta= 0.70
     Davidson diagonalization with overlap
     ethr =  8.94E-04,  avg # of iterations =  2.7

     total cpu time spent up to now is     1819.9 secs

     total energy              =    -437.67169387 Ry
     Harris-Foulkes estimate   =    -437.80145735 Ry
     estimated scf accuracy    <       0.23760546 Ry

     iteration #  3     ecut=    25.00 Ry     beta= 0.70
     Davidson diagonalization with overlap
     ethr =  4.57E-04,  avg # of iterations =  2.0

     total cpu time spent up to now is     1853.6 secs

     total energy              =    -437.69357641 Ry
     Harris-Foulkes estimate   =    -437.70002886 Ry
     estimated scf accuracy    <       0.01368259 Ry

     iteration #  4     ecut=    25.00 Ry     beta= 0.70
     Davidson diagonalization with overlap
     ethr =  2.63E-05,  avg # of iterations =  2.1

     total cpu time spent up to now is     1890.4 secs

     total energy              =    -437.69591356 Ry
     Harris-Foulkes estimate   =    -437.69591770 Ry
     estimated scf accuracy    <       0.00022381 Ry

     iteration #  5     ecut=    25.00 Ry     beta= 0.70
     Davidson diagonalization with overlap
     ethr =  4.30E-07,  avg # of iterations =  2.3

     total cpu time spent up to now is     1926.0 secs

     total energy              =    -437.69594513 Ry
     Harris-Foulkes estimate   =    -437.69596935 Ry
     estimated scf accuracy    <       0.00004158 Ry

     iteration #  6     ecut=    25.00 Ry     beta= 0.70
     Davidson diagonalization with overlap
     ethr =  8.00E-08,  avg # of iterations =  2.0

     total cpu time spent up to now is     1961.3 secs

     total energy              =    -437.69595249 Ry
     Harris-Foulkes estimate   =    -437.69595308 Ry
     estimated scf accuracy    <       0.00000102 Ry

     iteration #  7     ecut=    25.00 Ry     beta= 0.70
     Davidson diagonalization with overlap
     ethr =  1.96E-09,  avg # of iterations =  2.2

     total cpu time spent up to now is     1999.3 secs

     total energy              =    -437.69595278 Ry
     Harris-Foulkes estimate   =    -437.69595280 Ry
     estimated scf accuracy    <       0.00000005 Ry

     iteration #  8     ecut=    25.00 Ry     beta= 0.70
     Davidson diagonalization with overlap
     ethr =  9.60E-11,  avg # of iterations =  2.1

     total cpu time spent up to now is     2037.5 secs

     total energy              =    -437.69595279 Ry
     Harris-Foulkes estimate   =    -437.69595279 Ry
     estimated scf accuracy    <       0.00000001 Ry

     iteration #  9     ecut=    25.00 Ry     beta= 0.70
     Davidson diagonalization with overlap
     ethr =  1.99E-11,  avg # of iterations =  2.1

     total cpu time spent up to now is     2072.0 secs

     total energy              =    -437.69595279 Ry
     Harris-Foulkes estimate   =    -437.69595279 Ry
     estimated scf accuracy    <          1.0E-09 Ry

     iteration # 10     ecut=    25.00 Ry     beta= 0.70
     Davidson diagonalization with overlap
     ethr =  2.00E-12,  avg # of iterations =  2.0

     total cpu time spent up to now is     2108.4 secs

     total energy              =    -437.69595279 Ry
     Harris-Foulkes estimate   =    -437.69595279 Ry
     estimated scf accuracy    <          4.6E-11 Ry

     iteration # 11     ecut=    25.00 Ry     beta= 0.70
     Davidson diagonalization with overlap
     ethr =  1.00E-13,  avg # of iterations =  2.0

     total cpu time spent up to now is     2145.3 secs

     End of self-consistent calculation

     Number of k-points >= 100: set verbosity='high' to print the bands.

     highest occupied level (ev):    30.2047

!    total energy              =    -437.69595279 Ry
     Harris-Foulkes estimate   =    -437.69595279 Ry
     estimated scf accuracy    <          9.1E-13 Ry

     The total energy is the sum of the following terms:

     one-electron contribution =     -35.26001090 Ry
     hartree contribution      =      88.67876464 Ry
     xc contribution           =    -127.69367623 Ry
     ewald contribution        =    -363.42103031 Ry

     convergence has been achieved in  11 iterations

     Forces acting on atoms (cartesian axes, Ry/au):

     atom    1 type  1   force =     0.02825206    0.02825206    0.00000000
     atom    2 type  1   force =    -0.06586071   -0.06586071    0.00000000
     atom    3 type  2   force =    -1.82164507    1.76935481    0.00000000
     atom    4 type  2   force =     1.76935481   -1.82164507    0.00000000
     atom    5 type  2   force =    -1.75163283   -1.75163283    0.00000000
     atom    6 type  2   force =     1.84153174    1.84153174    0.00000000

     Total force =     5.082047     Total SCF correction =     0.000003


     Computing stress (Cartesian axis) and pressure

          total   stress  (Ry/bohr**3)                   (kbar)     P= 5870.05
  -0.00014505   0.00002596   0.00000000        -21.34      3.82      0.00
   0.00002596  -0.00014505   0.00000000          3.82    -21.34      0.00
   0.00000000   0.00000000   0.12000150          0.00      0.00  17652.83


     number of scf cycles    =   4
     number of bfgs steps    =   3

     enthalpy old            =    -441.2131837923 Ry
     enthalpy new            =    -437.6959527908 Ry

     CASE: enthalpy_new > enthalpy_old

     new trust radius        =       0.2644256751 bohr
     new conv_thr            =            1.0E-12 Ry

     new unit-cell volume =    224.43659 a.u.^3 (    33.25807 Ang^3 )
     density =     15.04937 g/cm^3

CELL_PARAMETERS (alat=  9.11000000)
   0.759024683   0.000000000   0.000000000
   0.000000000   0.759024683   0.000000000
   0.000000000   0.000000000   0.515260351

ATOMIC_POSITIONS (crystal)
Sn      -0.000007244  -0.000007244   0.000000000
Sn       0.499578637   0.499578637   0.500000000
O        0.802758338   0.196078249   0.500000000
O        0.196078249   0.802758338   0.500000000
O        0.303139308   0.303139308   0.000000000
O        0.696452713   0.696452713   0.000000000



     Writing output data file SnO2.save
     NEW-OLD atomic charge density approx. for the potential

     Check: negative/imaginary core charge=   -0.000501    0.000000
     extrapolated charge   50.25121, renormalised to   52.00000

     total cpu time spent up to now is     2158.4 secs

     Self-consistent Calculation

     iteration #  1     ecut=    25.00 Ry     beta= 0.70
     Davidson diagonalization with overlap
     ethr =  1.00E-06,  avg # of iterations =  7.0

     total cpu time spent up to now is     2251.2 secs

     total energy              =    -441.69048555 Ry
     Harris-Foulkes estimate   =    -443.06022449 Ry
     estimated scf accuracy    <       0.24149101 Ry

     iteration #  2     ecut=    25.00 Ry     beta= 0.70
     Davidson diagonalization with overlap
     ethr =  4.64E-04,  avg # of iterations =  2.1

     total cpu time spent up to now is     2290.2 secs

     total energy              =    -441.81123604 Ry
     Harris-Foulkes estimate   =    -441.83730989 Ry
     estimated scf accuracy    <       0.05022642 Ry

     iteration #  3     ecut=    25.00 Ry     beta= 0.70
     Davidson diagonalization with overlap
     ethr =  9.66E-05,  avg # of iterations =  2.0

     total cpu time spent up to now is     2324.6 secs

     total energy              =    -441.81663495 Ry
     Harris-Foulkes estimate   =    -441.81727678 Ry
     estimated scf accuracy    <       0.00230824 Ry

     iteration #  4     ecut=    25.00 Ry     beta= 0.70
     Davidson diagonalization with overlap
     ethr =  4.44E-06,  avg # of iterations =  2.0

     total cpu time spent up to now is     2362.1 secs

     total energy              =    -441.81705560 Ry
     Harris-Foulkes estimate   =    -441.81706274 Ry
     estimated scf accuracy    <       0.00006390 Ry

     iteration #  5     ecut=    25.00 Ry     beta= 0.70
     Davidson diagonalization with overlap
     ethr =  1.23E-07,  avg # of iterations =  2.6

     total cpu time spent up to now is     2400.8 secs

     total energy              =    -441.81706491 Ry
     Harris-Foulkes estimate   =    -441.81707687 Ry
     estimated scf accuracy    <       0.00002324 Ry

     iteration #  6     ecut=    25.00 Ry     beta= 0.70
     Davidson diagonalization with overlap
     ethr =  4.47E-08,  avg # of iterations =  2.0

     total cpu time spent up to now is     2435.9 secs

     total energy              =    -441.81706975 Ry
     Harris-Foulkes estimate   =    -441.81706995 Ry
     estimated scf accuracy    <       0.00000051 Ry

     iteration #  7     ecut=    25.00 Ry     beta= 0.70
     Davidson diagonalization with overlap
     ethr =  9.85E-10,  avg # of iterations =  2.0

     total cpu time spent up to now is     2473.9 secs

     total energy              =    -441.81706989 Ry
     Harris-Foulkes estimate   =    -441.81706990 Ry
     estimated scf accuracy    <       0.00000003 Ry

     iteration #  8     ecut=    25.00 Ry     beta= 0.70
     Davidson diagonalization with overlap
     ethr =  5.13E-11,  avg # of iterations =  2.0

     total cpu time spent up to now is     2512.0 secs

     total energy              =    -441.81706989 Ry
     Harris-Foulkes estimate   =    -441.81706990 Ry
     estimated scf accuracy    <          2.5E-09 Ry

     iteration #  9     ecut=    25.00 Ry     beta= 0.70
     Davidson diagonalization with overlap
     ethr =  4.88E-12,  avg # of iterations =  2.4

     total cpu time spent up to now is     2546.4 secs

     total energy              =    -441.81706989 Ry
     Harris-Foulkes estimate   =    -441.81706989 Ry
     estimated scf accuracy    <          3.2E-10 Ry

     iteration # 10     ecut=    25.00 Ry     beta= 0.70
     Davidson diagonalization with overlap
     ethr =  6.21E-13,  avg # of iterations =  2.0

     total cpu time spent up to now is     2581.3 secs

     total energy              =    -441.81706989 Ry
     Harris-Foulkes estimate   =    -441.81706989 Ry
     estimated scf accuracy    <          9.5E-12 Ry

     iteration # 11     ecut=    25.00 Ry     beta= 0.70
     Davidson diagonalization with overlap
     ethr =  1.00E-13,  avg # of iterations =  1.5

     total cpu time spent up to now is     2608.6 secs

     End of self-consistent calculation

     Number of k-points >= 100: set verbosity='high' to print the bands.

     highest occupied level (ev):    29.6890

!    total energy              =    -441.81706989 Ry
     Harris-Foulkes estimate   =    -441.81706989 Ry
     estimated scf accuracy    <          3.0E-13 Ry

     The total energy is the sum of the following terms:

     one-electron contribution =      17.72170880 Ry
     hartree contribution      =      65.47495944 Ry
     xc contribution           =    -127.32595371 Ry
     ewald contribution        =    -397.68778442 Ry

     convergence has been achieved in  11 iterations

     Forces acting on atoms (cartesian axes, Ry/au):

     atom    1 type  1   force =    -0.00406904   -0.00406904    0.00000000
     atom    2 type  1   force =     0.00615346    0.00615346    0.00000000
     atom    3 type  2   force =    -0.08841118    0.08557240    0.00000000
     atom    4 type  2   force =     0.08557240   -0.08841118    0.00000000
     atom    5 type  2   force =    -0.08673988   -0.08673988    0.00000000
     atom    6 type  2   force =     0.08749423    0.08749423    0.00000000

     Total force =     0.246466     Total SCF correction =     0.000002


     Computing stress (Cartesian axis) and pressure

          total   stress  (Ry/bohr**3)                   (kbar)     P= 5230.00
   0.03207720  -0.00000039   0.00000000       4718.72     -0.06      0.00
  -0.00000039   0.03207720  -0.00000000         -0.06   4718.72     -0.00
   0.00000000   0.00000000   0.04250418          0.00      0.00   6252.58


     number of scf cycles    =   5
     number of bfgs steps    =   3

     enthalpy old            =    -441.2131837923 Ry
     enthalpy new            =    -441.8170698947 Ry

     CASE: enthalpy_new < enthalpy_old

     new trust radius        =       0.4936617692 bohr
     new conv_thr            =            1.0E-12 Ry

     new unit-cell volume =    308.64596 a.u.^3 (    45.73661 Ang^3 )
     density =     10.94338 g/cm^3

CELL_PARAMETERS (alat=  9.11000000)
   0.824747645   0.000000000   0.000000000
   0.000000000   0.824747645   0.000000000
   0.000000000   0.000000000   0.600154822

ATOMIC_POSITIONS (crystal)
Sn       0.000316940   0.000316940   0.000000000
Sn       0.500332722   0.500332722   0.500000000
O        0.804757110   0.193972946   0.500000000
O        0.193972946   0.804757110   0.500000000
O        0.304698431   0.304698431   0.000000000
O        0.693921850   0.693921850   0.000000000



     Writing output data file SnO2.save
     NEW-OLD atomic charge density approx. for the potential

     Check: negative/imaginary core charge=   -0.001120    0.000000
     Check: negative starting charge=   -0.000713

     negative rho (up, down):  9.628E-04 0.000E+00
     extrapolated charge   66.18657, renormalised to   52.00000

     total cpu time spent up to now is     2621.7 secs

     Self-consistent Calculation

     iteration #  1     ecut=    25.00 Ry     beta= 0.70
     Davidson diagonalization with overlap
     c_bands:  1 eigenvalues not converged
     c_bands:  1 eigenvalues not converged
     c_bands:  1 eigenvalues not converged
     c_bands:  1 eigenvalues not converged
     c_bands:  1 eigenvalues not converged
     c_bands:  1 eigenvalues not converged
     ethr =  1.00E-06,  avg # of iterations = 13.0

     negative rho (up, down):  2.051E-04 0.000E+00

     total cpu time spent up to now is     2725.2 secs

     total energy              =    -429.63705064 Ry
     Harris-Foulkes estimate   =    -426.40227413 Ry
     estimated scf accuracy    <       6.63993974 Ry

     iteration #  2     ecut=    25.00 Ry     beta= 0.70
     Davidson diagonalization with overlap
     ethr =  1.00E-02,  avg # of iterations =  4.5

     negative rho (up, down):  9.643E-05 0.000E+00

     total cpu time spent up to now is     2781.4 secs

     total energy              =    -441.89929934 Ry
     Harris-Foulkes estimate   =    -445.59948764 Ry
     estimated scf accuracy    <       8.47909297 Ry

     iteration #  3     ecut=    25.00 Ry     beta= 0.70
     Davidson diagonalization with overlap
     ethr =  1.00E-02,  avg # of iterations =  2.0

     negative rho (up, down):  3.899E-05 0.000E+00

     total cpu time spent up to now is     2811.4 secs

     total energy              =    -441.66638603 Ry
     Harris-Foulkes estimate   =    -442.32017225 Ry
     estimated scf accuracy    <       1.96865428 Ry

     iteration #  4     ecut=    25.00 Ry     beta= 0.70
     Davidson diagonalization with overlap
     ethr =  3.79E-03,  avg # of iterations =  1.0

     total cpu time spent up to now is     2837.3 secs

     total energy              =    -441.38578737 Ry
     Harris-Foulkes estimate   =    -441.72296437 Ry
     estimated scf accuracy    <       0.80116225 Ry

     iteration #  5     ecut=    25.00 Ry     beta= 0.70
     Davidson diagonalization with overlap
     ethr =  1.54E-03,  avg # of iterations =  1.6

     total cpu time spent up to now is     2864.7 secs

     total energy              =    -441.31684138 Ry
     Harris-Foulkes estimate   =    -441.42860945 Ry
     estimated scf accuracy    <       0.17801409 Ry

     iteration #  6     ecut=    25.00 Ry     beta= 0.70
     Davidson diagonalization with overlap
     ethr =  3.42E-04,  avg # of iterations =  2.0

     total cpu time spent up to now is     2902.3 secs

     total energy              =    -441.35360856 Ry
     Harris-Foulkes estimate   =    -441.35401875 Ry
     estimated scf accuracy    <       0.00072039 Ry

     iteration #  7     ecut=    25.00 Ry     beta= 0.70
     Davidson diagonalization with overlap
     ethr =  1.39E-06,  avg # of iterations =  2.6

     total cpu time spent up to now is     2941.8 secs

     total energy              =    -441.35393668 Ry
     Harris-Foulkes estimate   =    -441.35401240 Ry
     estimated scf accuracy    <       0.00027050 Ry

     iteration #  8     ecut=    25.00 Ry     beta= 0.70
     Davidson diagonalization with overlap
     ethr =  5.20E-07,  avg # of iterations =  1.0

     total cpu time spent up to now is     2968.0 secs

     total energy              =    -441.35389045 Ry
     Harris-Foulkes estimate   =    -441.35394865 Ry
     estimated scf accuracy    <       0.00011121 Ry

     iteration #  9     ecut=    25.00 Ry     beta= 0.70
     Davidson diagonalization with overlap
     ethr =  2.14E-07,  avg # of iterations =  2.0

     total cpu time spent up to now is     3000.7 secs

     total energy              =    -441.35390023 Ry
     Harris-Foulkes estimate   =    -441.35390271 Ry
     estimated scf accuracy    <       0.00000552 Ry

     iteration # 10     ecut=    25.00 Ry     beta= 0.70
     Davidson diagonalization with overlap
     ethr =  1.06E-08,  avg # of iterations =  2.0

     total cpu time spent up to now is     3035.1 secs

     total energy              =    -441.35390096 Ry
     Harris-Foulkes estimate   =    -441.35390122 Ry
     estimated scf accuracy    <       0.00000046 Ry

     iteration # 11     ecut=    25.00 Ry     beta= 0.70
     Davidson diagonalization with overlap
     ethr =  8.91E-10,  avg # of iterations =  2.0

     total cpu time spent up to now is     3072.9 secs

     total energy              =    -441.35390103 Ry
     Harris-Foulkes estimate   =    -441.35390105 Ry
     estimated scf accuracy    <       0.00000004 Ry

     iteration # 12     ecut=    25.00 Ry     beta= 0.70
     Davidson diagonalization with overlap
     ethr =  8.36E-11,  avg # of iterations =  2.0

     total cpu time spent up to now is     3106.3 secs

     total energy              =    -441.35390103 Ry
     Harris-Foulkes estimate   =    -441.35390104 Ry
     estimated scf accuracy    <          3.7E-09 Ry

     iteration # 13     ecut=    25.00 Ry     beta= 0.70
     Davidson diagonalization with overlap
     ethr =  7.08E-12,  avg # of iterations =  2.0

     total cpu time spent up to now is     3138.9 secs

     total energy              =    -441.35390103 Ry
     Harris-Foulkes estimate   =    -441.35390104 Ry
     estimated scf accuracy    <          4.5E-10 Ry

     iteration # 14     ecut=    25.00 Ry     beta= 0.70
     Davidson diagonalization with overlap
     ethr =  8.58E-13,  avg # of iterations =  2.0

     total cpu time spent up to now is     3174.1 secs

     total energy              =    -441.35390104 Ry
     Harris-Foulkes estimate   =    -441.35390104 Ry
     estimated scf accuracy    <          2.9E-11 Ry

     iteration # 15     ecut=    25.00 Ry     beta= 0.70
     Davidson diagonalization with overlap
     ethr =  1.00E-13,  avg # of iterations =  2.0

     total cpu time spent up to now is     3204.8 secs

     total energy              =    -441.35390104 Ry
     Harris-Foulkes estimate   =    -441.35390104 Ry
     estimated scf accuracy    <          1.3E-12 Ry

     iteration # 16     ecut=    25.00 Ry     beta= 0.70
     Davidson diagonalization with overlap
     ethr =  1.00E-13,  avg # of iterations =  1.0

     total cpu time spent up to now is     3231.2 secs

     End of self-consistent calculation

     Number of k-points >= 100: set verbosity='high' to print the bands.

     highest occupied level (ev):    19.7340

!    total energy              =    -441.35390104 Ry
     Harris-Foulkes estimate   =    -441.35390104 Ry
     estimated scf accuracy    <          9.7E-14 Ry

     The total energy is the sum of the following terms:

     one-electron contribution =     -31.37809294 Ry
     hartree contribution      =      72.97740024 Ry
     xc contribution           =    -123.32364889 Ry
     ewald contribution        =    -359.62955945 Ry

     convergence has been achieved in  16 iterations

     Forces acting on atoms (cartesian axes, Ry/au):

     atom    1 type  1   force =    -0.01663430   -0.01663430    0.00000000
     atom    2 type  1   force =    -0.00370712   -0.00370712    0.00000000
     atom    3 type  2   force =     0.04818887   -0.05268242    0.00000000
     atom    4 type  2   force =    -0.05268242    0.04818887    0.00000000
     atom    5 type  2   force =     0.06307445    0.06307445    0.00000000
     atom    6 type  2   force =    -0.03823948   -0.03823948    0.00000000

     Total force =     0.147164     Total SCF correction =     0.000001


     Computing stress (Cartesian axis) and pressure

          total   stress  (Ry/bohr**3)                   (kbar)     P=-4897.17
  -0.02710622   0.00000282  -0.00000000      -3987.46      0.41     -0.00
   0.00000282  -0.02710622   0.00000000          0.41  -3987.46      0.00
   0.00000000   0.00000000  -0.04565853          0.00      0.00  -6716.60


     number of scf cycles    =   6
     number of bfgs steps    =   4

     enthalpy old            =    -441.8170698947 Ry
     enthalpy new            =    -441.3539010350 Ry

     CASE: enthalpy_new > enthalpy_old

     new trust radius        =       0.2133315383 bohr
     new conv_thr            =            1.0E-12 Ry

     new unit-cell volume =    258.50263 a.u.^3 (    38.30614 Ang^3 )
     density =     13.06613 g/cm^3

CELL_PARAMETERS (alat=  9.11000000)
   0.787234210   0.000000000   0.000000000
   0.000000000   0.787234210   0.000000000
   0.000000000   0.000000000   0.551698649

ATOMIC_POSITIONS (crystal)
Sn       0.000131902   0.000131902   0.000000000
Sn       0.499902304   0.499902304   0.500000000
O        0.803616248   0.195174613   0.500000000
O        0.195174613   0.803616248   0.500000000
O        0.303808513   0.303808513   0.000000000
O        0.695366419   0.695366419   0.000000000



     Writing output data file SnO2.save
     Check: negative starting charge=   -0.000713
     NEW-OLD atomic charge density approx. for the potential

     Check: negative/imaginary core charge=   -0.000749    0.000000
     extrapolated charge   41.91384, renormalised to   52.00000

     total cpu time spent up to now is     3244.2 secs

     Self-consistent Calculation

     iteration #  1     ecut=    25.00 Ry     beta= 0.70
     Davidson diagonalization with overlap
     ethr =  1.00E-06,  avg # of iterations =  6.0

     total cpu time spent up to now is     3321.5 secs

     total energy              =    -439.59856906 Ry
     Harris-Foulkes estimate   =    -450.81500243 Ry
     estimated scf accuracy    <       2.63021934 Ry

     iteration #  2     ecut=    25.00 Ry     beta= 0.70
     Davidson diagonalization with overlap
     ethr =  5.06E-03,  avg # of iterations =  3.0

     total cpu time spent up to now is     3364.0 secs

     total energy              =    -442.29140091 Ry
     Harris-Foulkes estimate   =    -443.03891185 Ry
     estimated scf accuracy    <       1.62422293 Ry

     iteration #  3     ecut=    25.00 Ry     beta= 0.70
     Davidson diagonalization with overlap
     ethr =  3.12E-03,  avg # of iterations =  2.0

     total cpu time spent up to now is     3395.8 secs

     total energy              =    -442.36217488 Ry
     Harris-Foulkes estimate   =    -442.43932891 Ry
     estimated scf accuracy    <       0.15842704 Ry

     iteration #  4     ecut=    25.00 Ry     beta= 0.70
     Davidson diagonalization with overlap
     ethr =  3.05E-04,  avg # of iterations =  2.0

     total cpu time spent up to now is     3428.2 secs

     total energy              =    -442.37099839 Ry
     Harris-Foulkes estimate   =    -442.38012432 Ry
     estimated scf accuracy    <       0.01435643 Ry

     iteration #  5     ecut=    25.00 Ry     beta= 0.70
     Davidson diagonalization with overlap
     ethr =  2.76E-05,  avg # of iterations =  2.2

     total cpu time spent up to now is     3466.5 secs

     total energy              =    -442.37530044 Ry
     Harris-Foulkes estimate   =    -442.37614298 Ry
     estimated scf accuracy    <       0.00162080 Ry

     iteration #  6     ecut=    25.00 Ry     beta= 0.70
     Davidson diagonalization with overlap
     ethr =  3.12E-06,  avg # of iterations =  2.0

     total cpu time spent up to now is     3499.9 secs

     total energy              =    -442.37548827 Ry
     Harris-Foulkes estimate   =    -442.37551857 Ry
     estimated scf accuracy    <       0.00006070 Ry

     iteration #  7     ecut=    25.00 Ry     beta= 0.70
     Davidson diagonalization with overlap
     ethr =  1.17E-07,  avg # of iterations =  2.0

     total cpu time spent up to now is     3536.0 secs

     total energy              =    -442.37549600 Ry
     Harris-Foulkes estimate   =    -442.37549741 Ry
     estimated scf accuracy    <       0.00000344 Ry

     iteration #  8     ecut=    25.00 Ry     beta= 0.70
     Davidson diagonalization with overlap
     ethr =  6.61E-09,  avg # of iterations =  2.0

     total cpu time spent up to now is     3568.7 secs

     total energy              =    -442.37549605 Ry
     Harris-Foulkes estimate   =    -442.37549634 Ry
     estimated scf accuracy    <       0.00000051 Ry

     iteration #  9     ecut=    25.00 Ry     beta= 0.70
     Davidson diagonalization with overlap
     ethr =  9.78E-10,  avg # of iterations =  2.0

     total cpu time spent up to now is     3605.3 secs

     total energy              =    -442.37549615 Ry
     Harris-Foulkes estimate   =    -442.37549615 Ry
     estimated scf accuracy    <          2.0E-09 Ry

     iteration # 10     ecut=    25.00 Ry     beta= 0.70
     Davidson diagonalization with overlap
     ethr =  3.85E-12,  avg # of iterations =  3.0

     total cpu time spent up to now is     3647.4 secs

     total energy              =    -442.37549615 Ry
     Harris-Foulkes estimate   =    -442.37549615 Ry
     estimated scf accuracy    <          3.3E-10 Ry

     iteration # 11     ecut=    25.00 Ry     beta= 0.70
     Davidson diagonalization with overlap
     ethr =  6.37E-13,  avg # of iterations =  2.0

     total cpu time spent up to now is     3683.4 secs

     total energy              =    -442.37549615 Ry
     Harris-Foulkes estimate   =    -442.37549615 Ry
     estimated scf accuracy    <          3.3E-12 Ry

     iteration # 12     ecut=    25.00 Ry     beta= 0.70
     Davidson diagonalization with overlap
     ethr =  1.00E-13,  avg # of iterations =  1.0

     total cpu time spent up to now is     3709.6 secs

     End of self-consistent calculation

     Number of k-points >= 100: set verbosity='high' to print the bands.

     highest occupied level (ev):    24.7841

!    total energy              =    -442.37549615 Ry
     Harris-Foulkes estimate   =    -442.37549615 Ry
     estimated scf accuracy    <          4.2E-13 Ry

     The total energy is the sum of the following terms:

     one-electron contribution =      -5.38934647 Ry
     hartree contribution      =      68.98191935 Ry
     xc contribution           =    -125.57460618 Ry
     ewald contribution        =    -380.39346285 Ry

     convergence has been achieved in  12 iterations

     Forces acting on atoms (cartesian axes, Ry/au):

     atom    1 type  1   force =    -0.01227994   -0.01227994    0.00000000
     atom    2 type  1   force =    -0.00129834   -0.00129834    0.00000000
     atom    3 type  2   force =     0.00133792   -0.00546066    0.00000000
     atom    4 type  2   force =    -0.00546066    0.00133792    0.00000000
     atom    5 type  2   force =     0.01229868    0.01229868    0.00000000
     atom    6 type  2   force =     0.00540234    0.00540234    0.00000000

     Total force =     0.027001     Total SCF correction =     0.000002


     Computing stress (Cartesian axis) and pressure

          total   stress  (Ry/bohr**3)                   (kbar)     P= -140.33
   0.00036809   0.00000110   0.00000000         54.15      0.16      0.00
   0.00000110   0.00036809   0.00000000          0.16     54.15      0.00
   0.00000000   0.00000000  -0.00359795          0.00      0.00   -529.28


     number of scf cycles    =   7
     number of bfgs steps    =   4

     enthalpy old            =    -441.8170698947 Ry
     enthalpy new            =    -442.3754961486 Ry

     CASE: enthalpy_new < enthalpy_old

     new trust radius        =       0.0496093091 bohr
     new conv_thr            =            1.0E-12 Ry

     new unit-cell volume =    258.10720 a.u.^3 (    38.24754 Ang^3 )
     density =     13.08615 g/cm^3

CELL_PARAMETERS (alat=  9.11000000)
   0.792770939   0.000000000   0.000000000
   0.000000000   0.792770939   0.000000000
   0.000000000   0.000000000   0.543187217

ATOMIC_POSITIONS (crystal)
Sn      -0.001122786  -0.001122786   0.000000000
Sn       0.499803904   0.499803904   0.500000000
O        0.800615262   0.197798718   0.500000000
O        0.197798718   0.800615262   0.500000000
O        0.301862873   0.301862873   0.000000000
O        0.699042029   0.699042029   0.000000000



     Writing output data file SnO2.save
     NEW-OLD atomic charge density approx. for the potential

     Check: negative/imaginary core charge=   -0.000740    0.000000
     extrapolated charge   51.92034, renormalised to   52.00000

     total cpu time spent up to now is     3722.6 secs

     Self-consistent Calculation

     iteration #  1     ecut=    25.00 Ry     beta= 0.70
     Davidson diagonalization with overlap
     ethr =  1.00E-06,  avg # of iterations =  5.0

     total cpu time spent up to now is     3786.8 secs

     total energy              =    -442.38023691 Ry
     Harris-Foulkes estimate   =    -442.45056340 Ry
     estimated scf accuracy    <       0.00156786 Ry

     iteration #  2     ecut=    25.00 Ry     beta= 0.70
     Davidson diagonalization with overlap
     ethr =  3.02E-06,  avg # of iterations =  2.0

     total cpu time spent up to now is     3824.4 secs

     total energy              =    -442.38063079 Ry
     Harris-Foulkes estimate   =    -442.38070588 Ry
     estimated scf accuracy    <       0.00018682 Ry

     iteration #  3     ecut=    25.00 Ry     beta= 0.70
     Davidson diagonalization with overlap
     ethr =  3.59E-07,  avg # of iterations =  2.0

     total cpu time spent up to now is     3859.2 secs

     total energy              =    -442.38066316 Ry
     Harris-Foulkes estimate   =    -442.38066253 Ry
     estimated scf accuracy    <       0.00000981 Ry

     iteration #  4     ecut=    25.00 Ry     beta= 0.70
     Davidson diagonalization with overlap
     ethr =  1.89E-08,  avg # of iterations =  2.0

     total cpu time spent up to now is     3895.8 secs

     total energy              =    -442.38066483 Ry
     Harris-Foulkes estimate   =    -442.38066554 Ry
     estimated scf accuracy    <       0.00000159 Ry

     iteration #  5     ecut=    25.00 Ry     beta= 0.70
     Davidson diagonalization with overlap
     ethr =  3.06E-09,  avg # of iterations =  2.3

     total cpu time spent up to now is     3933.4 secs

     total energy              =    -442.38066523 Ry
     Harris-Foulkes estimate   =    -442.38066533 Ry
     estimated scf accuracy    <       0.00000022 Ry

     iteration #  6     ecut=    25.00 Ry     beta= 0.70
     Davidson diagonalization with overlap
     ethr =  4.30E-10,  avg # of iterations =  2.1

     total cpu time spent up to now is     3969.4 secs

     total energy              =    -442.38066528 Ry
     Harris-Foulkes estimate   =    -442.38066529 Ry
     estimated scf accuracy    <       0.00000001 Ry

     iteration #  7     ecut=    25.00 Ry     beta= 0.70
     Davidson diagonalization with overlap
     ethr =  2.51E-11,  avg # of iterations =  2.0

     total cpu time spent up to now is     4004.5 secs

     total energy              =    -442.38066529 Ry
     Harris-Foulkes estimate   =    -442.38066529 Ry
     estimated scf accuracy    <          1.2E-10 Ry

     iteration #  8     ecut=    25.00 Ry     beta= 0.70
     Davidson diagonalization with overlap
     ethr =  2.38E-13,  avg # of iterations =  2.5

     total cpu time spent up to now is     4044.6 secs

     total energy              =    -442.38066529 Ry
     Harris-Foulkes estimate   =    -442.38066529 Ry
     estimated scf accuracy    <          9.8E-12 Ry

     iteration #  9     ecut=    25.00 Ry     beta= 0.70
     Davidson diagonalization with overlap
     ethr =  1.00E-13,  avg # of iterations =  1.9

     total cpu time spent up to now is     4072.8 secs

     total energy              =    -442.38066529 Ry
     Harris-Foulkes estimate   =    -442.38066529 Ry
     estimated scf accuracy    <          1.0E-12 Ry

     iteration # 10     ecut=    25.00 Ry     beta= 0.70
     Davidson diagonalization with overlap
     ethr =  1.00E-13,  avg # of iterations =  1.0

     total cpu time spent up to now is     4099.1 secs

     End of self-consistent calculation

     Number of k-points >= 100: set verbosity='high' to print the bands.

     highest occupied level (ev):    24.7273

!    total energy              =    -442.38066529 Ry
     Harris-Foulkes estimate   =    -442.38066529 Ry
     estimated scf accuracy    <          2.6E-14 Ry

     The total energy is the sum of the following terms:

     one-electron contribution =      -6.04829526 Ry
     hartree contribution      =      69.34458974 Ry
     xc contribution           =    -125.62107231 Ry
     ewald contribution        =    -380.05588746 Ry

     convergence has been achieved in  10 iterations

     Forces acting on atoms (cartesian axes, Ry/au):

     atom    1 type  1   force =     0.04497200    0.04497200    0.00000000
     atom    2 type  1   force =     0.00848359    0.00848359    0.00000000
     atom    3 type  2   force =     0.01121009   -0.00590494    0.00000000
     atom    4 type  2   force =    -0.00590494    0.01121009    0.00000000
     atom    5 type  2   force =    -0.02034122   -0.02034122    0.00000000
     atom    6 type  2   force =    -0.03841951   -0.03841951    0.00000000

     Total force =     0.091047     Total SCF correction =     0.000001


     Computing stress (Cartesian axis) and pressure

          total   stress  (Ry/bohr**3)                   (kbar)     P=  -26.42
  -0.00037654   0.00000677   0.00000000        -55.39      1.00      0.00
   0.00000677  -0.00037654   0.00000000          1.00    -55.39      0.00
   0.00000000   0.00000000   0.00021432          0.00      0.00     31.53


     number of scf cycles    =   8
     number of bfgs steps    =   5

     enthalpy old            =    -442.3754961486 Ry
     enthalpy new            =    -442.3806652855 Ry

     CASE: enthalpy_new < enthalpy_old

     new trust radius        =       0.0281176989 bohr
     new conv_thr            =            1.0E-12 Ry

     new unit-cell volume =    257.72692 a.u.^3 (    38.19119 Ang^3 )
     density =     13.10546 g/cm^3

CELL_PARAMETERS (alat=  9.11000000)
   0.792020307   0.000000000   0.000000000
   0.000000000   0.792020307   0.000000000
   0.000000000   0.000000000   0.543415489

ATOMIC_POSITIONS (crystal)
Sn       0.001630166   0.001630166   0.000000000
Sn       0.500340696   0.500340696   0.500000000
O        0.801108910   0.197593975   0.500000000
O        0.197593975   0.801108910   0.500000000
O        0.300454588   0.300454588   0.000000000
O        0.696871665   0.696871665   0.000000000



     Writing output data file SnO2.save
     NEW-OLD atomic charge density approx. for the potential

     Check: negative/imaginary core charge=   -0.000737    0.000000
     extrapolated charge   51.92328, renormalised to   52.00000

     total cpu time spent up to now is     4112.2 secs

     Self-consistent Calculation

     iteration #  1     ecut=    25.00 Ry     beta= 0.70
     Davidson diagonalization with overlap
     ethr =  1.00E-06,  avg # of iterations =  4.2

     total cpu time spent up to now is     4174.0 secs

     total energy              =    -442.37937942 Ry
     Harris-Foulkes estimate   =    -442.44656613 Ry
     estimated scf accuracy    <       0.00065239 Ry

     iteration #  2     ecut=    25.00 Ry     beta= 0.70
     Davidson diagonalization with overlap
     ethr =  1.25E-06,  avg # of iterations =  2.0

     total cpu time spent up to now is     4211.8 secs

     total energy              =    -442.37961857 Ry
     Harris-Foulkes estimate   =    -442.37969203 Ry
     estimated scf accuracy    <       0.00015549 Ry

     iteration #  3     ecut=    25.00 Ry     beta= 0.70
     Davidson diagonalization with overlap
     ethr =  2.99E-07,  avg # of iterations =  2.0

     total cpu time spent up to now is     4246.1 secs

     total energy              =    -442.37964215 Ry
     Harris-Foulkes estimate   =    -442.37964328 Ry
     estimated scf accuracy    <       0.00000867 Ry

     iteration #  4     ecut=    25.00 Ry     beta= 0.70
     Davidson diagonalization with overlap
     ethr =  1.67E-08,  avg # of iterations =  2.0

     total cpu time spent up to now is     4283.9 secs

     total energy              =    -442.37964375 Ry
     Harris-Foulkes estimate   =    -442.37964502 Ry
     estimated scf accuracy    <       0.00000240 Ry

     iteration #  5     ecut=    25.00 Ry     beta= 0.70
     Davidson diagonalization with overlap
     ethr =  4.62E-09,  avg # of iterations =  2.2

     total cpu time spent up to now is     4320.3 secs

     total energy              =    -442.37964435 Ry
     Harris-Foulkes estimate   =    -442.37964442 Ry
     estimated scf accuracy    <       0.00000017 Ry

     iteration #  6     ecut=    25.00 Ry     beta= 0.70
     Davidson diagonalization with overlap
     ethr =  3.26E-10,  avg # of iterations =  2.0

     total cpu time spent up to now is     4356.9 secs

     total energy              =    -442.37964439 Ry
     Harris-Foulkes estimate   =    -442.37964439 Ry
     estimated scf accuracy    <       0.00000001 Ry

     iteration #  7     ecut=    25.00 Ry     beta= 0.70
     Davidson diagonalization with overlap
     ethr =  1.94E-11,  avg # of iterations =  2.0

     total cpu time spent up to now is     4394.0 secs

     total energy              =    -442.37964439 Ry
     Harris-Foulkes estimate   =    -442.37964439 Ry
     estimated scf accuracy    <          2.3E-10 Ry

     iteration #  8     ecut=    25.00 Ry     beta= 0.70
     Davidson diagonalization with overlap
     ethr =  4.39E-13,  avg # of iterations =  2.8

     total cpu time spent up to now is     4431.7 secs

     total energy              =    -442.37964439 Ry
     Harris-Foulkes estimate   =    -442.37964439 Ry
     estimated scf accuracy    <          3.4E-11 Ry

     iteration #  9     ecut=    25.00 Ry     beta= 0.70
     Davidson diagonalization with overlap
     ethr =  1.00E-13,  avg # of iterations =  2.6

     total cpu time spent up to now is     4466.0 secs

     total energy              =    -442.37964439 Ry
     Harris-Foulkes estimate   =    -442.37964439 Ry
     estimated scf accuracy    <          2.9E-12 Ry

     iteration # 10     ecut=    25.00 Ry     beta= 0.70
     Davidson diagonalization with overlap
     ethr =  1.00E-13,  avg # of iterations =  1.0

     total cpu time spent up to now is     4492.5 secs

     End of self-consistent calculation

     Number of k-points >= 100: set verbosity='high' to print the bands.

     highest occupied level (ev):    24.7835

!    total energy              =    -442.37964439 Ry
     Harris-Foulkes estimate   =    -442.37964439 Ry
     estimated scf accuracy    <          1.0E-13 Ry

     The total energy is the sum of the following terms:

     one-electron contribution =      -5.78493433 Ry
     hartree contribution      =      69.29694179 Ry
     xc contribution           =    -125.63836828 Ry
     ewald contribution        =    -380.25328357 Ry

     convergence has been achieved in  10 iterations

     Forces acting on atoms (cartesian axes, Ry/au):

     atom    1 type  1   force =    -0.07603446   -0.07603446    0.00000000
     atom    2 type  1   force =    -0.01494593   -0.01494593    0.00000000
     atom    3 type  2   force =    -0.00431071   -0.01301990    0.00000000
     atom    4 type  2   force =    -0.01301990   -0.00431071    0.00000000
     atom    5 type  2   force =     0.05926046    0.05926046    0.00000000
     atom    6 type  2   force =     0.04905054    0.04905054    0.00000000

     Total force =     0.155631     Total SCF correction =     0.000001


     Computing stress (Cartesian axis) and pressure

          total   stress  (Ry/bohr**3)                   (kbar)     P=   19.70
  -0.00003789   0.00002173   0.00000000         -5.57      3.20      0.00
   0.00002173  -0.00003789   0.00000000          3.20     -5.57      0.00
   0.00000000   0.00000000   0.00047761          0.00      0.00     70.26


     number of scf cycles    =   9
     number of bfgs steps    =   6

     enthalpy old            =    -442.3806652855 Ry
     enthalpy new            =    -442.3796443893 Ry

     CASE: enthalpy_new > enthalpy_old

     new trust radius        =       0.0110568987 bohr
     new conv_thr            =            1.0E-12 Ry

     new unit-cell volume =    257.95751 a.u.^3 (    38.22536 Ang^3 )
     density =     13.09374 g/cm^3

CELL_PARAMETERS (alat=  9.11000000)
   0.792475483   0.000000000   0.000000000
   0.000000000   0.792475483   0.000000000
   0.000000000   0.000000000   0.543277067

ATOMIC_POSITIONS (crystal)
Sn      -0.000039199  -0.000039199   0.000000000
Sn       0.500015190   0.500015190   0.500000000
O        0.800809566   0.197718129   0.500000000
O        0.197718129   0.800809566   0.500000000
O        0.301308560   0.301308560   0.000000000
O        0.698187754   0.698187754   0.000000000



     Writing output data file SnO2.save
     NEW-OLD atomic charge density approx. for the potential

     Check: negative/imaginary core charge=   -0.000739    0.000000
     extrapolated charge   52.04648, renormalised to   52.00000

     total cpu time spent up to now is     4505.4 secs

     Self-consistent Calculation

     iteration #  1     ecut=    25.00 Ry     beta= 0.70
     Davidson diagonalization with overlap
     ethr =  1.00E-06,  avg # of iterations =  4.0

     total cpu time spent up to now is     4563.3 secs

     total energy              =    -442.38130691 Ry
     Harris-Foulkes estimate   =    -442.34086038 Ry
     estimated scf accuracy    <       0.00024323 Ry

     iteration #  2     ecut=    25.00 Ry     beta= 0.70
     Davidson diagonalization with overlap
     ethr =  4.68E-07,  avg # of iterations =  2.0

     total cpu time spent up to now is     4601.3 secs

     total energy              =    -442.38139667 Ry
     Harris-Foulkes estimate   =    -442.38142432 Ry
     estimated scf accuracy    <       0.00005815 Ry

     iteration #  3     ecut=    25.00 Ry     beta= 0.70
     Davidson diagonalization with overlap
     ethr =  1.12E-07,  avg # of iterations =  2.0

     total cpu time spent up to now is     4635.3 secs

     total energy              =    -442.38140544 Ry
     Harris-Foulkes estimate   =    -442.38140600 Ry
     estimated scf accuracy    <       0.00000339 Ry

     iteration #  4     ecut=    25.00 Ry     beta= 0.70
     Davidson diagonalization with overlap
     ethr =  6.52E-09,  avg # of iterations =  2.0

     total cpu time spent up to now is     4673.1 secs

     total energy              =    -442.38140609 Ry
     Harris-Foulkes estimate   =    -442.38140662 Ry
     estimated scf accuracy    <       0.00000100 Ry

     iteration #  5     ecut=    25.00 Ry     beta= 0.70
     Davidson diagonalization with overlap
     ethr =  1.92E-09,  avg # of iterations =  2.2

     total cpu time spent up to now is     4709.3 secs

     total energy              =    -442.38140634 Ry
     Harris-Foulkes estimate   =    -442.38140636 Ry
     estimated scf accuracy    <       0.00000006 Ry

     iteration #  6     ecut=    25.00 Ry     beta= 0.70
     Davidson diagonalization with overlap
     ethr =  1.16E-10,  avg # of iterations =  2.0

     total cpu time spent up to now is     4745.3 secs

     total energy              =    -442.38140635 Ry
     Harris-Foulkes estimate   =    -442.38140635 Ry
     estimated scf accuracy    <          3.7E-09 Ry

     iteration #  7     ecut=    25.00 Ry     beta= 0.70
     Davidson diagonalization with overlap
     ethr =  7.09E-12,  avg # of iterations =  2.0

     total cpu time spent up to now is     4782.4 secs

     total energy              =    -442.38140635 Ry
     Harris-Foulkes estimate   =    -442.38140635 Ry
     estimated scf accuracy    <          1.0E-10 Ry

     iteration #  8     ecut=    25.00 Ry     beta= 0.70
     Davidson diagonalization with overlap
     ethr =  1.94E-13,  avg # of iterations =  2.9

     total cpu time spent up to now is     4820.0 secs

     total energy              =    -442.38140635 Ry
     Harris-Foulkes estimate   =    -442.38140635 Ry
     estimated scf accuracy    <          1.6E-11 Ry

     iteration #  9     ecut=    25.00 Ry     beta= 0.70
     Davidson diagonalization with overlap
     ethr =  1.00E-13,  avg # of iterations =  2.0

     total cpu time spent up to now is     4850.0 secs

     End of self-consistent calculation

     Number of k-points >= 100: set verbosity='high' to print the bands.

     highest occupied level (ev):    24.7496

!    total energy              =    -442.38140635 Ry
     Harris-Foulkes estimate   =    -442.38140635 Ry
     estimated scf accuracy    <          9.4E-13 Ry

     The total energy is the sum of the following terms:

     one-electron contribution =      -5.93430371 Ry
     hartree contribution      =      69.32088827 Ry
     xc contribution           =    -125.62753929 Ry
     ewald contribution        =    -380.14045162 Ry

     convergence has been achieved in   9 iterations

     Forces acting on atoms (cartesian axes, Ry/au):

     atom    1 type  1   force =    -0.00277709   -0.00277709    0.00000000
     atom    2 type  1   force =    -0.00073144   -0.00073144    0.00000000
     atom    3 type  2   force =     0.00507406   -0.00865624    0.00000000
     atom    4 type  2   force =    -0.00865624    0.00507406    0.00000000
     atom    5 type  2   force =     0.01000211    0.01000211    0.00000000
     atom    6 type  2   force =    -0.00291141   -0.00291141    0.00000000

     Total force =     0.020854     Total SCF correction =     0.000002


     Computing stress (Cartesian axis) and pressure

          total   stress  (Ry/bohr**3)                   (kbar)     P=   -9.59
  -0.00025599  -0.00000188   0.00000000        -37.66     -0.28      0.00
  -0.00000188  -0.00025599   0.00000000         -0.28    -37.66      0.00
   0.00000000   0.00000000   0.00031638          0.00      0.00     46.54


     number of scf cycles    =  10
     number of bfgs steps    =   6

     enthalpy old            =    -442.3806652855 Ry
     enthalpy new            =    -442.3814063505 Ry

     CASE: enthalpy_new < enthalpy_old

     new trust radius        =       0.0117501960 bohr
     new conv_thr            =            1.0E-12 Ry

     new unit-cell volume =    257.73131 a.u.^3 (    38.19184 Ang^3 )
     density =     13.10523 g/cm^3

CELL_PARAMETERS (alat=  9.11000000)
   0.790687758   0.000000000   0.000000000
   0.000000000   0.790687758   0.000000000
   0.000000000   0.000000000   0.545257966

ATOMIC_POSITIONS (crystal)
Sn      -0.000043021  -0.000043021   0.000000000
Sn       0.499989019   0.499989019   0.500000000
O        0.801697598   0.196549155   0.500000000
O        0.196549155   0.801697598   0.500000000
O        0.302459429   0.302459429   0.000000000
O        0.697347820   0.697347820   0.000000000



     Writing output data file SnO2.save
     NEW-OLD atomic charge density approx. for the potential

     Check: negative/imaginary core charge=   -0.000739    0.000000
     extrapolated charge   51.95436, renormalised to   52.00000

     total cpu time spent up to now is     4863.1 secs

     Self-consistent Calculation

     iteration #  1     ecut=    25.00 Ry     beta= 0.70
     Davidson diagonalization with overlap
     ethr =  1.00E-06,  avg # of iterations =  4.0

     total cpu time spent up to now is     4918.3 secs

     total energy              =    -442.38161613 Ry
     Harris-Foulkes estimate   =    -442.42138000 Ry
     estimated scf accuracy    <       0.00021249 Ry

     iteration #  2     ecut=    25.00 Ry     beta= 0.70
     Davidson diagonalization with overlap
     ethr =  4.09E-07,  avg # of iterations =  2.0

     total cpu time spent up to now is     4956.4 secs

     total energy              =    -442.38170955 Ry
     Harris-Foulkes estimate   =    -442.38173386 Ry
     estimated scf accuracy    <       0.00004906 Ry

     iteration #  3     ecut=    25.00 Ry     beta= 0.70
     Davidson diagonalization with overlap
     ethr =  9.43E-08,  avg # of iterations =  2.0

     total cpu time spent up to now is     4989.4 secs

     total energy              =    -442.38171555 Ry
     Harris-Foulkes estimate   =    -442.38171593 Ry
     estimated scf accuracy    <       0.00000220 Ry

     iteration #  4     ecut=    25.00 Ry     beta= 0.70
     Davidson diagonalization with overlap
     ethr =  4.23E-09,  avg # of iterations =  2.0

     total cpu time spent up to now is     5026.4 secs

     total energy              =    -442.38171597 Ry
     Harris-Foulkes estimate   =    -442.38171606 Ry
     estimated scf accuracy    <       0.00000018 Ry

     iteration #  5     ecut=    25.00 Ry     beta= 0.70
     Davidson diagonalization with overlap
     ethr =  3.48E-10,  avg # of iterations =  2.0

     total cpu time spent up to now is     5064.1 secs

     total energy              =    -442.38171601 Ry
     Harris-Foulkes estimate   =    -442.38171603 Ry
     estimated scf accuracy    <       0.00000003 Ry

     iteration #  6     ecut=    25.00 Ry     beta= 0.70
     Davidson diagonalization with overlap
     ethr =  5.86E-11,  avg # of iterations =  2.0

     total cpu time spent up to now is     5100.6 secs

     total energy              =    -442.38171602 Ry
     Harris-Foulkes estimate   =    -442.38171602 Ry
     estimated scf accuracy    <          3.3E-09 Ry

     iteration #  7     ecut=    25.00 Ry     beta= 0.70
     Davidson diagonalization with overlap
     ethr =  6.34E-12,  avg # of iterations =  2.0

     total cpu time spent up to now is     5135.3 secs

     total energy              =    -442.38171602 Ry
     Harris-Foulkes estimate   =    -442.38171602 Ry
     estimated scf accuracy    <          5.5E-11 Ry

     iteration #  8     ecut=    25.00 Ry     beta= 0.70
     Davidson diagonalization with overlap
     ethr =  1.07E-13,  avg # of iterations =  2.1

     total cpu time spent up to now is     5173.2 secs

     total energy              =    -442.38171602 Ry
     Harris-Foulkes estimate   =    -442.38171602 Ry
     estimated scf accuracy    <          2.5E-12 Ry

     iteration #  9     ecut=    25.00 Ry     beta= 0.70
     Davidson diagonalization with overlap
     ethr =  1.00E-13,  avg # of iterations =  1.0

     total cpu time spent up to now is     5199.8 secs

     End of self-consistent calculation

[...]
   0.00716841   0.00000794   0.00000000       1054.51      1.17      0.00
   0.00000000   0.00000000   0.00001434          0.00      0.00      2.11


     number of scf cycles    =  46
     number of bfgs steps    =  36

     enthalpy old            =    -442.6659495031 Ry
     enthalpy new            =    -442.6659494375 Ry

     CASE: enthalpy_new > enthalpy_old

     new trust radius        =       0.0000192425 bohr

     trust_radius < trust_radius_min

     resetting bfgs history

     Message from routine bfgs:
     history already reset at previous step: stopping
     new conv_thr            =            1.0E-12 Ry

     new unit-cell volume =    250.36038 a.u.^3 (    37.09958 Ang^3 )
     density =     13.49107 g/cm^3

CELL_PARAMETERS (alat=  9.11000000)
   0.780794980   0.000000000   0.000000000
   0.000000000   0.780794980   0.000000000
   0.000000000   0.000000000   0.543170832

ATOMIC_POSITIONS (crystal)
Sn       0.046622448   0.046622448   0.000000000
Sn       0.555523717   0.555523717   0.500000000
O        0.703252431   0.115745000   0.500000000
O        0.115745000   0.703252431   0.500000000
O        0.344116579   0.344116579   0.000000000
O        0.732739826   0.732739826   0.000000000



     Writing output data file SnO2.save
     NEW-OLD atomic charge density approx. for the potential

     Check: negative/imaginary core charge=   -0.000686    0.000000
     extrapolated charge   51.99623, renormalised to   52.00000

     total cpu time spent up to now is    18958.7 secs

     Self-consistent Calculation

     iteration #  1     ecut=    25.00 Ry     beta= 0.70
     Davidson diagonalization with overlap
     ethr =  1.00E-06,  avg # of iterations =  1.0

     Threshold (ethr) on eigenvalues was too large:
     Diagonalizing with lowered threshold

     Davidson diagonalization with overlap
     ethr =  5.71E-10,  avg # of iterations =  3.0

     total cpu time spent up to now is    19025.0 secs

     total energy              =    -442.66594853 Ry
     Harris-Foulkes estimate   =    -442.66819331 Ry
     estimated scf accuracy    <       0.00000033 Ry

     iteration #  2     ecut=    25.00 Ry     beta= 0.70
     Davidson diagonalization with overlap
     ethr =  6.28E-10,  avg # of iterations =  3.3

     total cpu time spent up to now is    19072.8 secs

     total energy              =    -442.66594899 Ry
     Harris-Foulkes estimate   =    -442.66594919 Ry
     estimated scf accuracy    <       0.00000048 Ry

     iteration #  3     ecut=    25.00 Ry     beta= 0.70
     Davidson diagonalization with overlap
     ethr =  6.28E-10,  avg # of iterations =  2.0

     total cpu time spent up to now is    19105.2 secs

     total energy              =    -442.66594901 Ry
     Harris-Foulkes estimate   =    -442.66594903 Ry
     estimated scf accuracy    <       0.00000007 Ry

     iteration #  4     ecut=    25.00 Ry     beta= 0.70
     Davidson diagonalization with overlap
     ethr =  1.25E-10,  avg # of iterations =  1.0

     total cpu time spent up to now is    19131.5 secs

     total energy              =    -442.66594900 Ry
     Harris-Foulkes estimate   =    -442.66594901 Ry
     estimated scf accuracy    <       0.00000003 Ry

     iteration #  5     ecut=    25.00 Ry     beta= 0.70
     Davidson diagonalization with overlap
     ethr =  5.34E-11,  avg # of iterations =  2.1

     total cpu time spent up to now is    19168.2 secs

     total energy              =    -442.66594900 Ry
     Harris-Foulkes estimate   =    -442.66594900 Ry
     estimated scf accuracy    <          4.7E-10 Ry

     iteration #  6     ecut=    25.00 Ry     beta= 0.70
     Davidson diagonalization with overlap
     ethr =  8.99E-13,  avg # of iterations =  2.9

     total cpu time spent up to now is    19208.7 secs

     total energy              =    -442.66594900 Ry
     Harris-Foulkes estimate   =    -442.66594900 Ry
     estimated scf accuracy    <          1.9E-11 Ry

     iteration #  7     ecut=    25.00 Ry     beta= 0.70
     Davidson diagonalization with overlap
     ethr =  1.00E-13,  avg # of iterations =  2.0

     total cpu time spent up to now is    19246.1 secs

     total energy              =    -442.66594900 Ry
     Harris-Foulkes estimate   =    -442.66594900 Ry
     estimated scf accuracy    <          4.9E-11 Ry

     iteration #  8     ecut=    25.00 Ry     beta= 0.70
     Davidson diagonalization with overlap
     ethr =  1.00E-13,  avg # of iterations =  2.0

     total cpu time spent up to now is    19275.2 secs

     total energy              =    -442.66594900 Ry
     Harris-Foulkes estimate   =    -442.66594900 Ry
     estimated scf accuracy    <          9.3E-12 Ry

     iteration #  9     ecut=    25.00 Ry     beta= 0.70
     Davidson diagonalization with overlap
     ethr =  1.00E-13,  avg # of iterations =  1.0

     total cpu time spent up to now is    19301.4 secs

     End of self-consistent calculation

     Number of k-points >= 100: set verbosity='high' to print the bands.

     highest occupied level (ev):    26.0576

!    total energy              =    -442.66594900 Ry
     Harris-Foulkes estimate   =    -442.66594900 Ry
     estimated scf accuracy    <          3.2E-14 Ry

     The total energy is the sum of the following terms:

     one-electron contribution =      12.87330867 Ry
     hartree contribution      =      61.93797635 Ry
     xc contribution           =    -125.34013535 Ry
     ewald contribution        =    -392.13709867 Ry

     convergence has been achieved in   9 iterations

     Forces acting on atoms (cartesian axes, Ry/au):

     atom    1 type  1   force =    -0.00020378   -0.00020378    0.00000000
     atom    2 type  1   force =    -0.00027534   -0.00027534    0.00000000
     atom    3 type  2   force =    -0.00006217   -0.00000330    0.00000000
     atom    4 type  2   force =    -0.00000330   -0.00006217    0.00000000
     atom    5 type  2   force =     0.00008666    0.00008666    0.00000000
     atom    6 type  2   force =     0.00045793    0.00045793    0.00000000

     Total force =     0.000823     Total SCF correction =     0.000000


     Computing stress (Cartesian axis) and pressure

          total   stress  (Ry/bohr**3)                   (kbar)     P=    3.84
   0.00002016   0.00717072   0.00000000          2.97   1054.85      0.00
   0.00717072   0.00002016   0.00000000       1054.85      2.97      0.00
   0.00000000   0.00000000   0.00003798          0.00      0.00      5.59


     bfgs converged in  47 scf cycles and  36 bfgs steps
     (criteria: energy <  1.0E-10 Ry, force <  1.0E-09Ry/Bohr, cell <  5.0E-01kbar)

     End of BFGS Geometry Optimization

     Final enthalpy =    -442.6659490040 Ry
Begin final coordinates
     new unit-cell volume =    250.36038 a.u.^3 (    37.09958 Ang^3 )
     density =     13.49107 g/cm^3

CELL_PARAMETERS (alat=  9.11000000)
   0.780794980   0.000000000   0.000000000
   0.000000000   0.780794980   0.000000000
   0.000000000   0.000000000   0.543170832

ATOMIC_POSITIONS (crystal)
Sn       0.046622448   0.046622448   0.000000000
Sn       0.555523717   0.555523717   0.500000000
O        0.703252431   0.115745000   0.500000000
O        0.115745000   0.703252431   0.500000000
O        0.344116579   0.344116579   0.000000000
O        0.732739826   0.732739826   0.000000000
End final coordinates



     A final scf calculation at the relaxed structure.
     The G-vectors are recalculated for the final unit cell
     Results may differ from those at the preceding step.
 
     Parallelization info
     --------------------
     sticks:   dense  smooth     PW     G-vecs:    dense   smooth      PW
     Min         202     202     68                 2125     2125     436
     Max         203     203     69                 2126     2126     437
     Sum         405     405    137                 4251     4251     873
 


     bravais-lattice index     =            6
     lattice parameter (alat)  =       9.1100  a.u.
     unit-cell volume          =     250.3604 (a.u.)^3
     number of atoms/cell      =            6
     number of atomic types    =            2
     number of electrons       =        52.00
     number of Kohn-Sham states=           26
     kinetic-energy cutoff     =      25.0000  Ry
     charge density cutoff     =     100.0000  Ry
     convergence threshold     =      1.0E-12
     mixing beta               =       0.7000
     number of iterations used =            8  plain     mixing
     Exchange-correlation      = PBE ( 1  4  3  4 0 0)

     celldm(1)=   9.110000  celldm(2)=   0.000000  celldm(3)=   0.670000
     celldm(4)=   0.000000  celldm(5)=   0.000000  celldm(6)=   0.000000

     crystal axes: (cart. coord. in units of alat)
               a(1) = (   0.780795   0.000000   0.000000 )  
               a(2) = (   0.000000   0.780795   0.000000 )  
               a(3) = (   0.000000   0.000000   0.543171 )  

     reciprocal axes: (cart. coord. in units 2 pi/alat)
               b(1) = (  1.280746  0.000000  0.000000 )  
               b(2) = (  0.000000  1.280746  0.000000 )  
               b(3) = (  0.000000  0.000000  1.841041 )  


     PseudoPot. # 1 for Sn read from file:
     ../../Pseudo_potentials/Sn_PBE.upf
     MD5 check sum: 78e6386ae56e929f0568ae8bf606a80c
     Pseudo is Norm-conserving + core correction, Zval = 14.0
     Generated using ONCVPSP code by D. R. Hamann
     Using radial grid of 1628 points,  6 beta functions with: 
                l(1) =   0
                l(2) =   0
                l(3) =   1
                l(4) =   1
                l(5) =   2
                l(6) =   2

     PseudoPot. # 2 for O  read from file:
     ../../Pseudo_potentials/O_PBE.upf
     MD5 check sum: 3e3f909f7470e8921608ab6b1f57bbae
     Pseudo is Norm-conserving + core correction, Zval =  6.0
     Generated using ONCVPSP code by D. R. Hamann
     Using radial grid of  936 points,  5 beta functions with: 
                l(1) =   0
                l(2) =   0
                l(3) =   1
                l(4) =   1
                l(5) =   2

     atomic species   valence    mass     pseudopotential
        Sn            14.00   118.71000     Sn( 1.00)
        O              6.00    15.99900     O ( 1.00)

      4 Sym. Ops. (no inversion) found



   Cartesian axes

     site n.     atom                  positions (alat units)
         1           Sn  tau(   1) = (   0.0364026   0.0364026   0.0000000  )
         2           Sn  tau(   2) = (   0.4337501   0.4337501   0.2715854  )
         3           O   tau(   3) = (   0.5490960   0.0903731   0.2715854  )
         4           O   tau(   4) = (   0.0903731   0.5490960   0.2715854  )
         5           O   tau(   5) = (   0.2686845   0.2686845   0.0000000  )
         6           O   tau(   6) = (   0.5721196   0.5721196   0.0000000  )

     number of k points=   456

     Number of k-points >= 100: set verbosity='high' to print them.

     Dense  grid:     4251 G-vectors     FFT dimensions: (  24,  24,  15)

     Estimated max dynamical RAM per process >      55.58 MB

     Estimated total dynamical RAM >     111.15 MB

     Check: negative/imaginary core charge=   -0.003336    0.000000

     Initial potential from superposition of free atoms
     Check: negative starting charge=   -0.004678

     starting charge   51.99690, renormalised to   52.00000

     negative rho (up, down):  4.678E-03 0.000E+00
     Starting wfc are   34 randomized atomic wfcs

     Writing output data file SnO2.save

     total cpu time spent up to now is    19320.3 secs

     Self-consistent Calculation

     iteration #  1     ecut=    25.00 Ry     beta= 0.70
     Davidson diagonalization with overlap
     ethr =  1.00E-06,  avg # of iterations =  7.1

     negative rho (up, down):  1.369E-03 0.000E+00

     total cpu time spent up to now is    19365.8 secs

     total energy              =    -426.27695326 Ry
     Harris-Foulkes estimate   =    -429.52720610 Ry
     estimated scf accuracy    <       4.44714471 Ry

     iteration #  2     ecut=    25.00 Ry     beta= 0.70
     Davidson diagonalization with overlap
     ethr =  8.55E-03,  avg # of iterations =  2.0

     negative rho (up, down):  4.417E-04 0.000E+00

     total cpu time spent up to now is    19386.1 secs

     total energy              =    -427.13448453 Ry
     Harris-Foulkes estimate   =    -427.40575704 Ry
     estimated scf accuracy    <       0.42741545 Ry

     iteration #  3     ecut=    25.00 Ry     beta= 0.70
     Davidson diagonalization with overlap
     ethr =  8.22E-04,  avg # of iterations =  2.8

     negative rho (up, down):  5.147E-05 0.000E+00

     total cpu time spent up to now is    19406.7 secs

     total energy              =    -427.23344413 Ry
     Harris-Foulkes estimate   =    -427.26699590 Ry
     estimated scf accuracy    <       0.06704175 Ry

     iteration #  4     ecut=    25.00 Ry     beta= 0.70
     Davidson diagonalization with overlap
     ethr =  1.29E-04,  avg # of iterations =  2.2

     total cpu time spent up to now is    19425.6 secs

     total energy              =    -427.24533724 Ry
     Harris-Foulkes estimate   =    -427.24931072 Ry
     estimated scf accuracy    <       0.00694328 Ry

     iteration #  5     ecut=    25.00 Ry     beta= 0.70
     Davidson diagonalization with overlap
     ethr =  1.34E-05,  avg # of iterations =  2.9

     total cpu time spent up to now is    19447.6 secs

     total energy              =    -427.24710880 Ry
     Harris-Foulkes estimate   =    -427.24799613 Ry
     estimated scf accuracy    <       0.00167042 Ry

     iteration #  6     ecut=    25.00 Ry     beta= 0.70
     Davidson diagonalization with overlap
     ethr =  3.21E-06,  avg # of iterations =  2.4

     total cpu time spent up to now is    19467.1 secs

     total energy              =    -427.24750666 Ry
     Harris-Foulkes estimate   =    -427.24752907 Ry
     estimated scf accuracy    <       0.00004672 Ry

     iteration #  7     ecut=    25.00 Ry     beta= 0.70
     Davidson diagonalization with overlap
     ethr =  8.98E-08,  avg # of iterations =  2.5

     total cpu time spent up to now is    19487.2 secs

     total energy              =    -427.24751985 Ry
     Harris-Foulkes estimate   =    -427.24752099 Ry
     estimated scf accuracy    <       0.00000306 Ry

     iteration #  8     ecut=    25.00 Ry     beta= 0.70
     Davidson diagonalization with overlap
     ethr =  5.88E-09,  avg # of iterations =  2.8

     total cpu time spent up to now is    19506.9 secs

     total energy              =    -427.24752045 Ry
     Harris-Foulkes estimate   =    -427.24752061 Ry
     estimated scf accuracy    <       0.00000030 Ry

     iteration #  9     ecut=    25.00 Ry     beta= 0.70
     Davidson diagonalization with overlap
     ethr =  5.69E-10,  avg # of iterations =  2.9

     total cpu time spent up to now is    19528.2 secs

     total energy              =    -427.24752052 Ry
     Harris-Foulkes estimate   =    -427.24752053 Ry
     estimated scf accuracy    <       0.00000001 Ry

     iteration # 10     ecut=    25.00 Ry     beta= 0.70
     Davidson diagonalization with overlap
     ethr =  2.32E-11,  avg # of iterations =  2.9

     total cpu time spent up to now is    19548.0 secs

     total energy              =    -427.24752053 Ry
     Harris-Foulkes estimate   =    -427.24752053 Ry
     estimated scf accuracy    <          5.9E-10 Ry

     iteration # 11     ecut=    25.00 Ry     beta= 0.70
     Davidson diagonalization with overlap
     ethr =  1.14E-12,  avg # of iterations =  2.5

     total cpu time spent up to now is    19568.4 secs

     total energy              =    -427.24752053 Ry
     Harris-Foulkes estimate   =    -427.24752053 Ry
     estimated scf accuracy    <          2.7E-11 Ry

     iteration # 12     ecut=    25.00 Ry     beta= 0.70
     Davidson diagonalization with overlap
     ethr =  1.00E-13,  avg # of iterations =  2.0

     total cpu time spent up to now is    19585.6 secs

     End of self-consistent calculation

     Number of k-points >= 100: set verbosity='high' to print the bands.

     highest occupied level (ev):    28.6060

!    total energy              =    -427.24752053 Ry
     Harris-Foulkes estimate   =    -427.24752053 Ry
     estimated scf accuracy    <          6.9E-13 Ry

     The total energy is the sum of the following terms:

     one-electron contribution =      34.97977855 Ry
     hartree contribution      =      50.85431816 Ry
     xc contribution           =    -120.94451855 Ry
     ewald contribution        =    -392.13709868 Ry

     convergence has been achieved in  12 iterations

     Forces acting on atoms (cartesian axes, Ry/au):

     atom    1 type  1   force =     0.08885994    0.08885994    0.00000000
     atom    2 type  1   force =     0.01216033    0.01216033    0.00000000
     atom    3 type  2   force =     0.00982819   -0.08927815    0.00000000
     atom    4 type  2   force =    -0.08927815    0.00982819    0.00000000
     atom    5 type  2   force =    -0.07461802   -0.07461802    0.00000000
     atom    6 type  2   force =     0.05304771    0.05304771    0.00000000

     Total force =     0.221328     Total SCF correction =     0.000003


     Computing stress (Cartesian axis) and pressure

          total   stress  (Ry/bohr**3)                   (kbar)     P=********
  -0.09760513   0.00946692   0.00000000     -14358.21   1392.63      0.00
   0.00946692  -0.09760513   0.00000000       1392.63 -14358.21      0.00
   0.00000000   0.00000000  -0.09001839          0.00      0.00 -13242.16


     Writing output data file SnO2.save
 
     init_run     :     19.32s CPU     19.92s WALL (       2 calls)
     electrons    :  18458.70s CPU  18954.62s WALL (      48 calls)
     update_pot   :     24.05s CPU     24.17s WALL (      46 calls)
     forces       :    172.36s CPU    178.07s WALL (      48 calls)
     stress       :    395.49s CPU    400.60s WALL (      48 calls)

     Called by init_run:
     wfcinit      :     18.70s CPU     19.29s WALL (       2 calls)
     potinit      :      0.17s CPU      0.17s WALL (       2 calls)
     hinit0       :      0.42s CPU      0.43s WALL (       2 calls)

     Called by electrons:
     c_bands      :  16736.41s CPU  17174.30s WALL (     503 calls)
     sum_band     :   1717.08s CPU   1773.12s WALL (     503 calls)
     v_of_rho     :      4.36s CPU      4.42s WALL (     542 calls)
     mix_rho      :      0.97s CPU      1.01s WALL (     503 calls)

     Called by c_bands:
     init_us_2    :    225.56s CPU    277.52s WALL (  503424 calls)
     cegterg      :  15226.83s CPU  15645.19s WALL (  229368 calls)

     Called by sum_band:

     Called by *egterg:
     h_psi        :  11015.53s CPU  11516.99s WALL (  786853 calls)
     g_psi        :    105.24s CPU    108.89s WALL (  556573 calls)
     cdiaghg      :   1831.22s CPU   1806.55s WALL (  760861 calls)

     Called by h_psi:
     h_psi:pot    :  10976.57s CPU  11459.15s WALL (  786853 calls)
     h_psi:calbec :    952.86s CPU    922.89s WALL (  786853 calls)
     vloc_psi     :   9445.86s CPU   9609.23s WALL (  786853 calls)
     add_vuspsi   :    576.20s CPU    921.99s WALL (  786853 calls)

     General routines
     calbec       :   1130.60s CPU   1066.02s WALL (  896293 calls)
     fft          :      2.85s CPU      2.75s WALL (    6675 calls)
     ffts         :      0.18s CPU      0.21s WALL (     503 calls)
     fftw         :  10900.17s CPU  10430.21s WALL (40966714 calls)
 
     Parallel routines
     fft_scatt_xy :    135.03s CPU    775.92s WALL (40973892 calls)
     fft_scatt_yz :   9236.93s CPU   2235.44s WALL (40973892 calls)
 
     PWSCF        :     5h18m CPU        5h26m WALL

 
   This run was terminated on:   0: 1:47   9Apr2018            

=------------------------------------------------------------------------------=
   JOB DONE.
=------------------------------------------------------------------------------=
