
     Program PWSCF v.6.2.2 starts on  8Apr2018 at 12:19:41 

     This program is part of the open-source Quantum ESPRESSO suite
     for quantum simulation of materials; please cite
         "P. Giannozzi et al., J. Phys.:Condens. Matter 21 395502 (2009);
         "P. Giannozzi et al., J. Phys.:Condens. Matter 29 465901 (2017);
          URL http://www.quantum-espresso.org", 
     in publications or presentations arising from this work. More details at
     http://www.quantum-espresso.org/quote

     Parallel version (MPI), running on     2 processors

     MPI processes distributed on     1 nodes
     R & G space division:  proc/nbgrp/npool/nimage =       2
     Reading input from Conv_acell-kp.in

     Current dimensions of program PWSCF are:
     Max number of different atomic species (ntypx) = 10
     Max number of k-points (npk) =  40000
     Max angular momentum in pseudopotentials (lmaxx) =  3

     Subspace diagonalization in iterative solution of the eigenvalue problem:
     a serial algorithm will be used

 
     Parallelization info
     --------------------
     sticks:   dense  smooth     PW     G-vecs:    dense   smooth      PW
     Min         332     332    110                 4313     4313     791
     Max         333     333    111                 4314     4314     792
     Sum         665     665    221                 8627     8627    1583
 


     bravais-lattice index     =            6
     lattice parameter (alat)  =       9.1100  a.u.
     unit-cell volume          =     506.5589 (a.u.)^3
     number of atoms/cell      =            6
     number of atomic types    =            2
     number of electrons       =        52.00
     number of Kohn-Sham states=           26
     kinetic-energy cutoff     =      25.0000  Ry
     charge density cutoff     =     100.0000  Ry
     convergence threshold     =      1.0E-12
     mixing beta               =       0.7000
     number of iterations used =            8  plain     mixing
     Exchange-correlation      = PBE ( 1  4  3  4 0 0)
     nstep                     =           50


     celldm(1)=   9.110000  celldm(2)=   0.000000  celldm(3)=   0.670000
     celldm(4)=   0.000000  celldm(5)=   0.000000  celldm(6)=   0.000000

     crystal axes: (cart. coord. in units of alat)
               a(1) = (   1.000000   0.000000   0.000000 )  
               a(2) = (   0.000000   1.000000   0.000000 )  
               a(3) = (   0.000000   0.000000   0.670000 )  

     reciprocal axes: (cart. coord. in units 2 pi/alat)
               b(1) = (  1.000000  0.000000  0.000000 )  
               b(2) = (  0.000000  1.000000  0.000000 )  
               b(3) = (  0.000000  0.000000  1.492537 )  


     PseudoPot. # 1 for Sn read from file:
     ../../Pseudo_potentials/Sn_PBE.upf
     MD5 check sum: 78e6386ae56e929f0568ae8bf606a80c
     Pseudo is Norm-conserving + core correction, Zval = 14.0
     Generated using ONCVPSP code by D. R. Hamann
     Using radial grid of 1628 points,  6 beta functions with: 
                l(1) =   0
                l(2) =   0
                l(3) =   1
                l(4) =   1
                l(5) =   2
                l(6) =   2

     PseudoPot. # 2 for O  read from file:
     ../../Pseudo_potentials/O_PBE.upf
     MD5 check sum: 3e3f909f7470e8921608ab6b1f57bbae
     Pseudo is Norm-conserving + core correction, Zval =  6.0
     Generated using ONCVPSP code by D. R. Hamann
     Using radial grid of  936 points,  5 beta functions with: 
                l(1) =   0
                l(2) =   0
                l(3) =   1
                l(4) =   1
                l(5) =   2

     atomic species   valence    mass     pseudopotential
        Sn            14.00   118.71000     Sn( 1.00)
        O              6.00    15.99900     O ( 1.00)

      4 Sym. Ops. (no inversion) found



   Cartesian axes

     site n.     atom                  positions (alat units)
         1           Sn  tau(   1) = (   0.0000000   0.0000000   0.0000000  )
         2           Sn  tau(   2) = (   0.5000000   0.5000000   0.3350000  )
         3           O   tau(   3) = (   0.8060000   0.1930000   0.3350000  )
         4           O   tau(   4) = (   0.1930000   0.8060000   0.3350000  )
         5           O   tau(   5) = (   0.3060000   0.3060000   0.0000000  )
         6           O   tau(   6) = (   0.6930000   0.6930000   0.0000000  )

     number of k points=   105

     Number of k-points >= 100: set verbosity='high' to print them.

     Dense  grid:     8627 G-vectors     FFT dimensions: (  30,  30,  20)

     Estimated max dynamical RAM per process >      32.60 MB

     Estimated total dynamical RAM >      65.20 MB

     Check: negative/imaginary core charge=   -0.002394    0.000000

     Initial potential from superposition of free atoms
     Check: negative starting charge=   -0.009566

     starting charge   51.99690, renormalised to   52.00000

     negative rho (up, down):  9.566E-03 0.000E+00
     Starting wfc are   34 randomized atomic wfcs

     total cpu time spent up to now is        3.8 secs

     Self-consistent Calculation

     iteration #  1     ecut=    25.00 Ry     beta= 0.70
     Davidson diagonalization with overlap
     ethr =  1.00E-02,  avg # of iterations =  2.0

     negative rho (up, down):  2.854E-03 0.000E+00

     total cpu time spent up to now is       12.5 secs

     total energy              =    -429.61704483 Ry
     Harris-Foulkes estimate   =    -432.64989126 Ry
     estimated scf accuracy    <       4.17503363 Ry

     iteration #  2     ecut=    25.00 Ry     beta= 0.70
     Davidson diagonalization with overlap
     ethr =  8.03E-03,  avg # of iterations =  2.0

     negative rho (up, down):  8.834E-04 0.000E+00

     total cpu time spent up to now is       20.3 secs

     total energy              =    -430.39323575 Ry
     Harris-Foulkes estimate   =    -430.53459966 Ry
     estimated scf accuracy    <       0.25031620 Ry

     iteration #  3     ecut=    25.00 Ry     beta= 0.70
     Davidson diagonalization with overlap
     ethr =  4.81E-04,  avg # of iterations =  2.8

     negative rho (up, down):  1.576E-04 0.000E+00

     total cpu time spent up to now is       28.9 secs

     total energy              =    -430.43921551 Ry
     Harris-Foulkes estimate   =    -430.45276488 Ry
     estimated scf accuracy    <       0.02919205 Ry

     iteration #  4     ecut=    25.00 Ry     beta= 0.70
     Davidson diagonalization with overlap
     ethr =  5.61E-05,  avg # of iterations =  2.8

     total cpu time spent up to now is       37.1 secs

     total energy              =    -430.44447701 Ry
     Harris-Foulkes estimate   =    -430.44622387 Ry
     estimated scf accuracy    <       0.00342338 Ry

     iteration #  5     ecut=    25.00 Ry     beta= 0.70
     Davidson diagonalization with overlap
     ethr =  6.58E-06,  avg # of iterations =  3.1

     total cpu time spent up to now is       45.8 secs

     total energy              =    -430.44544158 Ry
     Harris-Foulkes estimate   =    -430.44554783 Ry
     estimated scf accuracy    <       0.00020519 Ry

     iteration #  6     ecut=    25.00 Ry     beta= 0.70
     Davidson diagonalization with overlap
     ethr =  3.95E-07,  avg # of iterations =  3.1

     total cpu time spent up to now is       54.4 secs

     total energy              =    -430.44549626 Ry
     Harris-Foulkes estimate   =    -430.44550363 Ry
     estimated scf accuracy    <       0.00001941 Ry

     iteration #  7     ecut=    25.00 Ry     beta= 0.70
     Davidson diagonalization with overlap
     ethr =  3.73E-08,  avg # of iterations =  3.0

     total cpu time spent up to now is       62.2 secs

     total energy              =    -430.44549695 Ry
     Harris-Foulkes estimate   =    -430.44549925 Ry
     estimated scf accuracy    <       0.00000461 Ry

     iteration #  8     ecut=    25.00 Ry     beta= 0.70
     Davidson diagonalization with overlap
     ethr =  8.86E-09,  avg # of iterations =  3.1

     total cpu time spent up to now is       70.7 secs

     total energy              =    -430.44549797 Ry
     Harris-Foulkes estimate   =    -430.44549797 Ry
     estimated scf accuracy    <       0.00000003 Ry

     iteration #  9     ecut=    25.00 Ry     beta= 0.70
     Davidson diagonalization with overlap
     ethr =  4.87E-11,  avg # of iterations =  3.4

     total cpu time spent up to now is       80.4 secs

     total energy              =    -430.44549798 Ry
     Harris-Foulkes estimate   =    -430.44549798 Ry
     estimated scf accuracy    <       0.00000001 Ry

     iteration # 10     ecut=    25.00 Ry     beta= 0.70
     Davidson diagonalization with overlap
     ethr =  2.03E-11,  avg # of iterations =  3.1

     total cpu time spent up to now is       88.6 secs

     total energy              =    -430.44549798 Ry
     Harris-Foulkes estimate   =    -430.44549798 Ry
     estimated scf accuracy    <          9.3E-10 Ry

     iteration # 11     ecut=    25.00 Ry     beta= 0.70
     Davidson diagonalization with overlap
     ethr =  1.79E-12,  avg # of iterations =  3.3

     total cpu time spent up to now is       97.5 secs

     total energy              =    -430.44549798 Ry
     Harris-Foulkes estimate   =    -430.44549798 Ry
     estimated scf accuracy    <          2.1E-10 Ry

     iteration # 12     ecut=    25.00 Ry     beta= 0.70
     Davidson diagonalization with overlap
     ethr =  4.12E-13,  avg # of iterations =  3.0

     total cpu time spent up to now is      105.5 secs

     total energy              =    -430.44549798 Ry
     Harris-Foulkes estimate   =    -430.44549798 Ry
     estimated scf accuracy    <          5.8E-12 Ry

     iteration # 13     ecut=    25.00 Ry     beta= 0.70
     Davidson diagonalization with overlap
     ethr =  1.00E-13,  avg # of iterations =  1.2

     total cpu time spent up to now is      111.6 secs

     End of self-consistent calculation

     Number of k-points >= 100: set verbosity='high' to print the bands.

     highest occupied level (ev):     9.7821

!    total energy              =    -430.44549798 Ry
     Harris-Foulkes estimate   =    -430.44549798 Ry
     estimated scf accuracy    <          1.0E-13 Ry

     The total energy is the sum of the following terms:

     one-electron contribution =     -96.63456328 Ry
     hartree contribution      =      85.50471617 Ry
     xc contribution           =    -116.83431253 Ry
     ewald contribution        =    -302.48133834 Ry

     convergence has been achieved in  13 iterations

     Forces acting on atoms (cartesian axes, Ry/au):

     atom    1 type  1   force =     0.00044590    0.00044590    0.00000000
     atom    2 type  1   force =    -0.00004276   -0.00004276    0.00000000
     atom    3 type  2   force =     0.01432635   -0.01384969    0.00000000
     atom    4 type  2   force =    -0.01384969    0.01432635    0.00000000
     atom    5 type  2   force =     0.01366319    0.01366319    0.00000000
     atom    6 type  2   force =    -0.01454298   -0.01454298    0.00000000

     Total force =     0.039886     Total SCF correction =     0.000002


     Computing stress (Cartesian axis) and pressure

          total   stress  (Ry/bohr**3)                   (kbar)     P=-9554.00
  -0.06529450   0.00000027   0.00000000      -9605.15      0.04      0.00
   0.00000027  -0.06529450   0.00000000          0.04  -9605.15      0.00
  -0.00000000   0.00000000  -0.06425131         -0.00      0.00  -9451.69


     BFGS Geometry Optimization

     number of scf cycles    =   1
     number of bfgs steps    =   0

     enthalpy new            =    -430.4454979784 Ry

     new trust radius        =       0.5000000000 bohr
     new conv_thr            =            1.0E-12 Ry

     new unit-cell volume =    356.52352 a.u.^3 (    52.83133 Ang^3 )
     density =      9.47379 g/cm^3

CELL_PARAMETERS (alat=  9.11000000)
   0.888922769   0.000000000   0.000000000
   0.000000000   0.888922769   0.000000000
   0.000000000   0.000000000   0.596767267

ATOMIC_POSITIONS (crystal)
Sn       0.000003331   0.000003331   0.000000000
Sn       0.499999681   0.499999681   0.500000000
O        0.806107010   0.192896550   0.500000000
O        0.192896550   0.806107010   0.500000000
O        0.306102057   0.306102057   0.000000000
O        0.692891372   0.692891372   0.000000000



     Writing output data file SnO2.save
     Check: negative starting charge=   -0.009566
     NEW-OLD atomic charge density approx. for the potential

     Check: negative/imaginary core charge=   -0.001408    0.000000
     Check: negative starting charge=   -0.001844

     negative rho (up, down):  1.260E+00 0.000E+00
     extrapolated charge   30.11821, renormalised to   52.00000

     total cpu time spent up to now is      115.9 secs

     Self-consistent Calculation

     iteration #  1     ecut=    25.00 Ry     beta= 0.70
     Davidson diagonalization with overlap
     ethr =  1.00E-06,  avg # of iterations = 12.1

     total cpu time spent up to now is      142.9 secs

     total energy              =    -402.04911701 Ry
     Harris-Foulkes estimate   =    -475.65858358 Ry
     estimated scf accuracy    <      58.34444866 Ry

     iteration #  2     ecut=    25.00 Ry     beta= 0.70
     Davidson diagonalization with overlap
     ethr =  1.00E-02,  avg # of iterations =  5.4

     total cpu time spent up to now is      156.4 secs

     total energy              =    -436.53232332 Ry
     Harris-Foulkes estimate   =    -447.72226410 Ry
     estimated scf accuracy    <      17.31947834 Ry

     iteration #  3     ecut=    25.00 Ry     beta= 0.70
     Davidson diagonalization with overlap
     ethr =  1.00E-02,  avg # of iterations =  2.6

     total cpu time spent up to now is      165.6 secs

     total energy              =    -439.51800200 Ry
     Harris-Foulkes estimate   =    -439.89123206 Ry
     estimated scf accuracy    <       0.69993646 Ry

     iteration #  4     ecut=    25.00 Ry     beta= 0.70
     Davidson diagonalization with overlap
     ethr =  1.35E-03,  avg # of iterations =  2.0

     total cpu time spent up to now is      172.2 secs

     total energy              =    -439.46284997 Ry
     Harris-Foulkes estimate   =    -439.56666367 Ry
     estimated scf accuracy    <       0.16784457 Ry

     iteration #  5     ecut=    25.00 Ry     beta= 0.70
     Davidson diagonalization with overlap
     ethr =  3.23E-04,  avg # of iterations =  2.1

     negative rho (up, down):  3.106E-05 0.000E+00

     total cpu time spent up to now is      179.6 secs

     total energy              =    -439.46191972 Ry
     Harris-Foulkes estimate   =    -439.48180751 Ry
     estimated scf accuracy    <       0.02676570 Ry

     iteration #  6     ecut=    25.00 Ry     beta= 0.70
     Davidson diagonalization with overlap
     ethr =  5.15E-05,  avg # of iterations =  2.0

     negative rho (up, down):  3.855E-04 0.000E+00

     total cpu time spent up to now is      188.3 secs

     total energy              =    -439.46641449 Ry
     Harris-Foulkes estimate   =    -439.46729777 Ry
     estimated scf accuracy    <       0.00168447 Ry

     iteration #  7     ecut=    25.00 Ry     beta= 0.70
     Davidson diagonalization with overlap
     ethr =  3.24E-06,  avg # of iterations =  2.2

     negative rho (up, down):  6.730E-05 0.000E+00

     total cpu time spent up to now is      196.5 secs

     total energy              =    -439.46993403 Ry
     Harris-Foulkes estimate   =    -439.46998302 Ry
     estimated scf accuracy    <       0.00008244 Ry

     iteration #  8     ecut=    25.00 Ry     beta= 0.70
     Davidson diagonalization with overlap
     ethr =  1.59E-07,  avg # of iterations =  2.0

     total cpu time spent up to now is      204.5 secs

     total energy              =    -439.46994235 Ry
     Harris-Foulkes estimate   =    -439.46994761 Ry
     estimated scf accuracy    <       0.00000875 Ry

     iteration #  9     ecut=    25.00 Ry     beta= 0.70
     Davidson diagonalization with overlap
     ethr =  1.68E-08,  avg # of iterations =  2.8

     total cpu time spent up to now is      213.1 secs

     total energy              =    -439.46994370 Ry
     Harris-Foulkes estimate   =    -439.46994410 Ry
     estimated scf accuracy    <       0.00000070 Ry

     iteration # 10     ecut=    25.00 Ry     beta= 0.70
     Davidson diagonalization with overlap
     ethr =  1.35E-09,  avg # of iterations =  2.8

     total cpu time spent up to now is      221.4 secs

     total energy              =    -439.46994383 Ry
     Harris-Foulkes estimate   =    -439.46994385 Ry
     estimated scf accuracy    <       0.00000004 Ry

     iteration # 11     ecut=    25.00 Ry     beta= 0.70
     Davidson diagonalization with overlap
     ethr =  7.14E-11,  avg # of iterations =  2.0

     total cpu time spent up to now is      230.1 secs

     total energy              =    -439.46994384 Ry
     Harris-Foulkes estimate   =    -439.46994384 Ry
     estimated scf accuracy    <          9.7E-10 Ry

     iteration # 12     ecut=    25.00 Ry     beta= 0.70
     Davidson diagonalization with overlap
     ethr =  1.87E-12,  avg # of iterations =  3.0

     total cpu time spent up to now is      239.0 secs

     total energy              =    -439.46994384 Ry
     Harris-Foulkes estimate   =    -439.46994384 Ry
     estimated scf accuracy    <          3.2E-11 Ry

     iteration # 13     ecut=    25.00 Ry     beta= 0.70
     Davidson diagonalization with overlap
     ethr =  1.00E-13,  avg # of iterations =  2.0

     total cpu time spent up to now is      246.8 secs

     total energy              =    -439.46994384 Ry
     Harris-Foulkes estimate   =    -439.46994384 Ry
     estimated scf accuracy    <          2.5E-12 Ry

     iteration # 14     ecut=    25.00 Ry     beta= 0.70
     Davidson diagonalization with overlap
     ethr =  1.00E-13,  avg # of iterations =  1.0

     total cpu time spent up to now is      252.8 secs

     End of self-consistent calculation

     Number of k-points >= 100: set verbosity='high' to print the bands.

     highest occupied level (ev):    16.0274

!    total energy              =    -439.46994384 Ry
     Harris-Foulkes estimate   =    -439.46994384 Ry
     estimated scf accuracy    <          2.5E-13 Ry

     The total energy is the sum of the following terms:

     one-electron contribution =     -56.66892492 Ry
     hartree contribution      =      78.92852741 Ry
     xc contribution           =    -121.61907590 Ry
     ewald contribution        =    -340.11047043 Ry

     convergence has been achieved in  14 iterations

     Forces acting on atoms (cartesian axes, Ry/au):

     atom    1 type  1   force =    -0.00331194   -0.00331194    0.00000000
     atom    2 type  1   force =    -0.00270141   -0.00270141    0.00000000
     atom    3 type  2   force =    -0.04995562    0.04912283    0.00000000
     atom    4 type  2   force =     0.04912283   -0.04995562    0.00000000
     atom    5 type  2   force =    -0.04611254   -0.04611254    0.00000000
     atom    6 type  2   force =     0.05295867    0.05295867    0.00000000

     Total force =     0.140413     Total SCF correction =     0.000002


     Computing stress (Cartesian axis) and pressure

          total   stress  (Ry/bohr**3)                   (kbar)     P=-7235.42
  -0.05024753   0.00000034   0.00000000      -7391.66      0.05      0.00
   0.00000034  -0.05024753   0.00000000          0.05  -7391.66      0.00
   0.00000000   0.00000000  -0.04706113          0.00      0.00  -6922.93


     number of scf cycles    =   2
     number of bfgs steps    =   1

     enthalpy old            =    -430.4454979784 Ry
     enthalpy new            =    -439.4699438421 Ry

     CASE: enthalpy_new < enthalpy_old

     new trust radius        =       0.7078257516 bohr
     new conv_thr            =            1.0E-12 Ry

     new unit-cell volume =    217.68779 a.u.^3 (    32.25800 Ang^3 )
     density =     15.51593 g/cm^3

CELL_PARAMETERS (alat=  9.11000000)
   0.722306921   0.000000000   0.000000000
   0.000000000   0.722306921   0.000000000
   0.000000000   0.000000000   0.551868222

ATOMIC_POSITIONS (crystal)
Sn      -0.000689491  -0.000689491   0.000000000
Sn       0.499483764   0.499483764   0.500000000
O        0.794737055   0.204048181   0.500000000
O        0.204048181   0.794737055   0.500000000
O        0.295553669   0.295553669   0.000000000
O        0.704866822   0.704866822   0.000000000



     Writing output data file SnO2.save
     Check: negative starting charge=   -0.001844
     NEW-OLD atomic charge density approx. for the potential

     Check: negative/imaginary core charge=   -0.000515    0.000000

     negative rho (up, down):  2.448E+00 0.000E+00
     extrapolated charge   18.83770, renormalised to   52.00000

     total cpu time spent up to now is      257.1 secs

     Self-consistent Calculation

     iteration #  1     ecut=    25.00 Ry     beta= 0.70
     Davidson diagonalization with overlap
     ethr =  1.00E-06,  avg # of iterations = 10.7

     total cpu time spent up to now is      284.1 secs

     total energy              =    -392.74023052 Ry
     Harris-Foulkes estimate   =    -483.42029819 Ry
     estimated scf accuracy    <     130.49752675 Ry

     iteration #  2     ecut=    25.00 Ry     beta= 0.70
     Davidson diagonalization with overlap
     ethr =  1.00E-02,  avg # of iterations =  5.0

     total cpu time spent up to now is      297.7 secs

     total energy              =    -437.81564115 Ry
     Harris-Foulkes estimate   =    -448.31684486 Ry
     estimated scf accuracy    <      15.23144115 Ry

     iteration #  3     ecut=    25.00 Ry     beta= 0.70
     Davidson diagonalization with overlap
     ethr =  1.00E-02,  avg # of iterations =  2.9

     total cpu time spent up to now is      307.1 secs

     total energy              =    -441.19735784 Ry
     Harris-Foulkes estimate   =    -441.36239287 Ry
     estimated scf accuracy    <       0.31712692 Ry

     iteration #  4     ecut=    25.00 Ry     beta= 0.70
     Davidson diagonalization with overlap
     ethr =  6.10E-04,  avg # of iterations =  2.0

     total cpu time spent up to now is      314.6 secs

     total energy              =    -441.21079783 Ry
     Harris-Foulkes estimate   =    -441.23138214 Ry
     estimated scf accuracy    <       0.03607512 Ry

     iteration #  5     ecut=    25.00 Ry     beta= 0.70
     Davidson diagonalization with overlap
     ethr =  6.94E-05,  avg # of iterations =  2.0

     total cpu time spent up to now is      321.5 secs

     total energy              =    -441.21278504 Ry
     Harris-Foulkes estimate   =    -441.21362533 Ry
     estimated scf accuracy    <       0.00157728 Ry

     iteration #  6     ecut=    25.00 Ry     beta= 0.70
     Davidson diagonalization with overlap
     ethr =  3.03E-06,  avg # of iterations =  2.0

     total cpu time spent up to now is      329.8 secs

     total energy              =    -441.21299769 Ry
     Harris-Foulkes estimate   =    -441.21304229 Ry
     estimated scf accuracy    <       0.00007964 Ry

     iteration #  7     ecut=    25.00 Ry     beta= 0.70
     Davidson diagonalization with overlap
     ethr =  1.53E-07,  avg # of iterations =  3.0

     total cpu time spent up to now is      338.6 secs

     total energy              =    -441.21301645 Ry
     Harris-Foulkes estimate   =    -441.21301826 Ry
     estimated scf accuracy    <       0.00000427 Ry

     iteration #  8     ecut=    25.00 Ry     beta= 0.70
     Davidson diagonalization with overlap
     ethr =  8.22E-09,  avg # of iterations =  2.2

     total cpu time spent up to now is      346.4 secs

     total energy              =    -441.21301707 Ry
     Harris-Foulkes estimate   =    -441.21301724 Ry
     estimated scf accuracy    <       0.00000030 Ry

     iteration #  9     ecut=    25.00 Ry     beta= 0.70
     Davidson diagonalization with overlap
     ethr =  5.68E-10,  avg # of iterations =  2.2

     total cpu time spent up to now is      354.4 secs

     total energy              =    -441.21301712 Ry
     Harris-Foulkes estimate   =    -441.21301714 Ry
     estimated scf accuracy    <       0.00000002 Ry

     iteration # 10     ecut=    25.00 Ry     beta= 0.70
     Davidson diagonalization with overlap
     ethr =  4.53E-11,  avg # of iterations =  2.0

     total cpu time spent up to now is      362.7 secs

     total energy              =    -441.21301713 Ry
     Harris-Foulkes estimate   =    -441.21301713 Ry
     estimated scf accuracy    <          6.0E-10 Ry

     iteration # 11     ecut=    25.00 Ry     beta= 0.70
     Davidson diagonalization with overlap
     ethr =  1.15E-12,  avg # of iterations =  2.1

     total cpu time spent up to now is      371.3 secs

     total energy              =    -441.21301713 Ry
     Harris-Foulkes estimate   =    -441.21301713 Ry
     estimated scf accuracy    <          4.4E-11 Ry

     iteration # 12     ecut=    25.00 Ry     beta= 0.70
     Davidson diagonalization with overlap
     ethr =  1.00E-13,  avg # of iterations =  2.0

     total cpu time spent up to now is      379.6 secs

     total energy              =    -441.21301713 Ry
     Harris-Foulkes estimate   =    -441.21301713 Ry
     estimated scf accuracy    <          3.0E-12 Ry

     iteration # 13     ecut=    25.00 Ry     beta= 0.70
     Davidson diagonalization with overlap
     ethr =  1.00E-13,  avg # of iterations =  1.0

     total cpu time spent up to now is      385.7 secs

     End of self-consistent calculation

     Number of k-points >= 100: set verbosity='high' to print the bands.

     highest occupied level (ev):    31.4498

!    total energy              =    -441.21301713 Ry
     Harris-Foulkes estimate   =    -441.21301713 Ry
     estimated scf accuracy    <          7.8E-14 Ry

     The total energy is the sum of the following terms:

     one-electron contribution =      29.80141475 Ry
     hartree contribution      =      61.37455163 Ry
     xc contribution           =    -127.50288469 Ry
     ewald contribution        =    -404.88609881 Ry

     convergence has been achieved in  13 iterations

     Forces acting on atoms (cartesian axes, Ry/au):

     atom    1 type  1   force =     0.05522888    0.05522888    0.00000000
     atom    2 type  1   force =     0.00843633    0.00843633    0.00000000
     atom    3 type  2   force =     0.65137312   -0.64726785    0.00000000
     atom    4 type  2   force =    -0.64726785    0.65137312    0.00000000
     atom    5 type  2   force =     0.61576726    0.61576726    0.00000000
     atom    6 type  2   force =    -0.68353774   -0.68353774    0.00000000

     Total force =     1.839977     Total SCF correction =     0.000001


     Computing stress (Cartesian axis) and pressure

          total   stress  (Ry/bohr**3)                   (kbar)     P= 6164.47
   0.05464714   0.00000382   0.00000000       8038.87      0.56      0.00
   0.00000382   0.05464714   0.00000000          0.56   8038.87      0.00
   0.00000000   0.00000000   0.01642134          0.00      0.00   2415.66


     number of scf cycles    =   3
     number of bfgs steps    =   2

     enthalpy old            =    -439.4699438421 Ry
     enthalpy new            =    -441.2130171274 Ry

     CASE: enthalpy_new < enthalpy_old

     new trust radius        =       0.6999668754 bohr
     new conv_thr            =            1.0E-12 Ry

     new unit-cell volume =    231.91531 a.u.^3 (    34.36630 Ang^3 )
     density =     14.56406 g/cm^3

CELL_PARAMETERS (alat=  9.11000000)
   0.853623893   0.000000000   0.000000000
   0.000000000   0.853623893   0.000000000
   0.000000000   0.000000000   0.420960324

ATOMIC_POSITIONS (crystal)
Sn       0.001749263   0.001749263   0.000000000
Sn       0.499826851   0.499826851   0.500000000
O        0.823482047   0.175482910   0.500000000
O        0.175482910   0.823482047   0.500000000
O        0.322743146   0.322743146   0.000000000
O        0.674715783   0.674715783   0.000000000



     Writing output data file SnO2.save
     NEW-OLD atomic charge density approx. for the potential

     Check: negative/imaginary core charge=   -0.000777    0.000000
     extrapolated charge   55.18990, renormalised to   52.00000

     total cpu time spent up to now is      390.0 secs

     Self-consistent Calculation

     iteration #  1     ecut=    25.00 Ry     beta= 0.70
     Davidson diagonalization with overlap
     ethr =  1.00E-06,  avg # of iterations =  8.4

     total cpu time spent up to now is      413.2 secs

     total energy              =    -437.40951023 Ry
     Harris-Foulkes estimate   =    -432.94837195 Ry
     estimated scf accuracy    <       0.46358938 Ry

     iteration #  2     ecut=    25.00 Ry     beta= 0.70
     Davidson diagonalization with overlap
     ethr =  8.92E-04,  avg # of iterations =  2.7

     total cpu time spent up to now is      422.6 secs

     total energy              =    -437.66024600 Ry
     Harris-Foulkes estimate   =    -437.78850674 Ry
     estimated scf accuracy    <       0.23415879 Ry

     iteration #  3     ecut=    25.00 Ry     beta= 0.70
     Davidson diagonalization with overlap
     ethr =  4.50E-04,  avg # of iterations =  2.0

     total cpu time spent up to now is      430.2 secs

     total energy              =    -437.68233211 Ry
     Harris-Foulkes estimate   =    -437.68844334 Ry
     estimated scf accuracy    <       0.01310675 Ry

     iteration #  4     ecut=    25.00 Ry     beta= 0.70
     Davidson diagonalization with overlap
     ethr =  2.52E-05,  avg # of iterations =  2.1

     total cpu time spent up to now is      438.8 secs

     total energy              =    -437.68456775 Ry
     Harris-Foulkes estimate   =    -437.68457007 Ry
     estimated scf accuracy    <       0.00022055 Ry

     iteration #  5     ecut=    25.00 Ry     beta= 0.70
     Davidson diagonalization with overlap
     ethr =  4.24E-07,  avg # of iterations =  2.2

     total cpu time spent up to now is      447.3 secs

     total energy              =    -437.68459783 Ry
     Harris-Foulkes estimate   =    -437.68462137 Ry
     estimated scf accuracy    <       0.00004051 Ry

     iteration #  6     ecut=    25.00 Ry     beta= 0.70
     Davidson diagonalization with overlap
     ethr =  7.79E-08,  avg # of iterations =  2.0

     total cpu time spent up to now is      455.4 secs

     total energy              =    -437.68460495 Ry
     Harris-Foulkes estimate   =    -437.68460554 Ry
     estimated scf accuracy    <       0.00000103 Ry

     iteration #  7     ecut=    25.00 Ry     beta= 0.70
     Davidson diagonalization with overlap
     ethr =  1.98E-09,  avg # of iterations =  2.2

     total cpu time spent up to now is      464.2 secs

     total energy              =    -437.68460523 Ry
     Harris-Foulkes estimate   =    -437.68460526 Ry
     estimated scf accuracy    <       0.00000005 Ry

     iteration #  8     ecut=    25.00 Ry     beta= 0.70
     Davidson diagonalization with overlap
     ethr =  9.35E-11,  avg # of iterations =  2.2

     total cpu time spent up to now is      472.8 secs

     total energy              =    -437.68460524 Ry
     Harris-Foulkes estimate   =    -437.68460525 Ry
     estimated scf accuracy    <       0.00000001 Ry

     iteration #  9     ecut=    25.00 Ry     beta= 0.70
     Davidson diagonalization with overlap
     ethr =  1.94E-11,  avg # of iterations =  2.1

     total cpu time spent up to now is      480.9 secs

     total energy              =    -437.68460525 Ry
     Harris-Foulkes estimate   =    -437.68460525 Ry
     estimated scf accuracy    <          1.0E-09 Ry

     iteration # 10     ecut=    25.00 Ry     beta= 0.70
     Davidson diagonalization with overlap
     ethr =  1.93E-12,  avg # of iterations =  2.0

     total cpu time spent up to now is      489.3 secs

     total energy              =    -437.68460525 Ry
     Harris-Foulkes estimate   =    -437.68460525 Ry
     estimated scf accuracy    <          4.1E-11 Ry

     iteration # 11     ecut=    25.00 Ry     beta= 0.70
     Davidson diagonalization with overlap
     ethr =  1.00E-13,  avg # of iterations =  2.0

     total cpu time spent up to now is      497.9 secs

     End of self-consistent calculation

     Number of k-points >= 100: set verbosity='high' to print the bands.

     highest occupied level (ev):    30.2170

!    total energy              =    -437.68460525 Ry
     Harris-Foulkes estimate   =    -437.68460525 Ry
     estimated scf accuracy    <          8.4E-13 Ry

     The total energy is the sum of the following terms:

     one-electron contribution =     -35.26941362 Ry
     hartree contribution      =      88.69942975 Ry
     xc contribution           =    -127.69813061 Ry
     ewald contribution        =    -363.41649077 Ry

     convergence has been achieved in  11 iterations

     Forces acting on atoms (cartesian axes, Ry/au):

     atom    1 type  1   force =     0.02836307    0.02836307    0.00000000
     atom    2 type  1   force =    -0.06592036   -0.06592036    0.00000000
     atom    3 type  2   force =    -1.82384705    1.77161568    0.00000000
     atom    4 type  2   force =     1.77161568   -1.82384705    0.00000000
     atom    5 type  2   force =    -1.75392252   -1.75392252    0.00000000
     atom    6 type  2   force =     1.84371117    1.84371117    0.00000000

     Total force =     5.088360     Total SCF correction =     0.000003


     Computing stress (Cartesian axis) and pressure

          total   stress  (Ry/bohr**3)                   (kbar)     P= 5884.20
  -0.00010269   0.00002597   0.00000000        -15.11      3.82      0.00
   0.00002597  -0.00010269   0.00000000          3.82    -15.11      0.00
   0.00000000   0.00000000   0.12020530          0.00      0.00  17682.81


     number of scf cycles    =   4
     number of bfgs steps    =   3

     enthalpy old            =    -441.2130171274 Ry
     enthalpy new            =    -437.6846052460 Ry

     CASE: enthalpy_new > enthalpy_old

     new trust radius        =       0.2644172376 bohr
     new conv_thr            =            1.0E-12 Ry

     new unit-cell volume =    224.42945 a.u.^3 (    33.25701 Ang^3 )
     density =     15.04985 g/cm^3

CELL_PARAMETERS (alat=  9.11000000)
   0.758966818   0.000000000   0.000000000
   0.000000000   0.758966818   0.000000000
   0.000000000   0.000000000   0.515322526

ATOMIC_POSITIONS (crystal)
Sn      -0.000008661  -0.000008661   0.000000000
Sn       0.499579544   0.499579544   0.500000000
O        0.802761825   0.196073584   0.500000000
O        0.196073584   0.802761825   0.500000000
O        0.303144184   0.303144184   0.000000000
O        0.696449525   0.696449525   0.000000000



     Writing output data file SnO2.save
     NEW-OLD atomic charge density approx. for the potential

     Check: negative/imaginary core charge=   -0.000501    0.000000
     extrapolated charge   50.26564, renormalised to   52.00000

     total cpu time spent up to now is      502.2 secs

     Self-consistent Calculation

     iteration #  1     ecut=    25.00 Ry     beta= 0.70
     Davidson diagonalization with overlap
     ethr =  1.00E-06,  avg # of iterations =  7.0

     total cpu time spent up to now is      523.7 secs

     total energy              =    -441.69065270 Ry
     Harris-Foulkes estimate   =    -443.04918181 Ry
     estimated scf accuracy    <       0.24116897 Ry

     iteration #  2     ecut=    25.00 Ry     beta= 0.70
     Davidson diagonalization with overlap
     ethr =  4.64E-04,  avg # of iterations =  2.1

     total cpu time spent up to now is      532.5 secs

     total energy              =    -441.81009856 Ry
     Harris-Foulkes estimate   =    -441.83576167 Ry
     estimated scf accuracy    <       0.04942873 Ry

     iteration #  3     ecut=    25.00 Ry     beta= 0.70
     Davidson diagonalization with overlap
     ethr =  9.51E-05,  avg # of iterations =  2.0

     total cpu time spent up to now is      540.5 secs

     total energy              =    -441.81546487 Ry
     Harris-Foulkes estimate   =    -441.81606830 Ry
     estimated scf accuracy    <       0.00224260 Ry

     iteration #  4     ecut=    25.00 Ry     beta= 0.70
     Davidson diagonalization with overlap
     ethr =  4.31E-06,  avg # of iterations =  2.0

     total cpu time spent up to now is      549.3 secs

     total energy              =    -441.81587231 Ry
     Harris-Foulkes estimate   =    -441.81587938 Ry
     estimated scf accuracy    <       0.00006340 Ry

     iteration #  5     ecut=    25.00 Ry     beta= 0.70
     Davidson diagonalization with overlap
     ethr =  1.22E-07,  avg # of iterations =  2.6

     total cpu time spent up to now is      558.4 secs

     total energy              =    -441.81588152 Ry
     Harris-Foulkes estimate   =    -441.81589334 Ry
     estimated scf accuracy    <       0.00002295 Ry

     iteration #  6     ecut=    25.00 Ry     beta= 0.70
     Davidson diagonalization with overlap
     ethr =  4.41E-08,  avg # of iterations =  2.0

     total cpu time spent up to now is      566.5 secs

     total energy              =    -441.81588633 Ry
     Harris-Foulkes estimate   =    -441.81588652 Ry
     estimated scf accuracy    <       0.00000049 Ry

     iteration #  7     ecut=    25.00 Ry     beta= 0.70
     Davidson diagonalization with overlap
     ethr =  9.50E-10,  avg # of iterations =  2.0

     total cpu time spent up to now is      575.2 secs

     total energy              =    -441.81588646 Ry
     Harris-Foulkes estimate   =    -441.81588648 Ry
     estimated scf accuracy    <       0.00000003 Ry

     iteration #  8     ecut=    25.00 Ry     beta= 0.70
     Davidson diagonalization with overlap
     ethr =  4.99E-11,  avg # of iterations =  2.0

     total cpu time spent up to now is      583.8 secs

     total energy              =    -441.81588647 Ry
     Harris-Foulkes estimate   =    -441.81588647 Ry
     estimated scf accuracy    <          2.6E-09 Ry

     iteration #  9     ecut=    25.00 Ry     beta= 0.70
     Davidson diagonalization with overlap
     ethr =  4.96E-12,  avg # of iterations =  2.4

     total cpu time spent up to now is      591.6 secs

     total energy              =    -441.81588647 Ry
     Harris-Foulkes estimate   =    -441.81588647 Ry
     estimated scf accuracy    <          3.2E-10 Ry

     iteration # 10     ecut=    25.00 Ry     beta= 0.70
     Davidson diagonalization with overlap
     ethr =  6.12E-13,  avg # of iterations =  2.0

     total cpu time spent up to now is      599.9 secs

     total energy              =    -441.81588647 Ry
     Harris-Foulkes estimate   =    -441.81588647 Ry
     estimated scf accuracy    <          9.3E-12 Ry

     iteration # 11     ecut=    25.00 Ry     beta= 0.70
     Davidson diagonalization with overlap
     ethr =  1.00E-13,  avg # of iterations =  1.5

     total cpu time spent up to now is      606.1 secs

     End of self-consistent calculation

     Number of k-points >= 100: set verbosity='high' to print the bands.

     highest occupied level (ev):    29.6907

!    total energy              =    -441.81588647 Ry
     Harris-Foulkes estimate   =    -441.81588647 Ry
     estimated scf accuracy    <          2.9E-13 Ry

     The total energy is the sum of the following terms:

     one-electron contribution =      17.74081252 Ry
     hartree contribution      =      65.46785744 Ry
     xc contribution           =    -127.32577104 Ry
     ewald contribution        =    -397.69878539 Ry

     convergence has been achieved in  11 iterations

     Forces acting on atoms (cartesian axes, Ry/au):

     atom    1 type  1   force =    -0.00398067   -0.00398067    0.00000000
     atom    2 type  1   force =     0.00614999    0.00614999    0.00000000
     atom    3 type  2   force =    -0.08774387    0.08490906    0.00000000
     atom    4 type  2   force =     0.08490906   -0.08774387    0.00000000
     atom    5 type  2   force =    -0.08611747   -0.08611747    0.00000000
     atom    6 type  2   force =     0.08678296    0.08678296    0.00000000

     Total force =     0.244580     Total SCF correction =     0.000001


     Computing stress (Cartesian axis) and pressure

          total   stress  (Ry/bohr**3)                   (kbar)     P= 5227.86
   0.03207996  -0.00000038   0.00000000       4719.12     -0.06      0.00
  -0.00000038   0.03207996   0.00000000         -0.06   4719.12      0.00
   0.00000000   0.00000000   0.04245500          0.00      0.00   6245.35


     number of scf cycles    =   5
     number of bfgs steps    =   3

     enthalpy old            =    -441.2130171274 Ry
     enthalpy new            =    -441.8158864694 Ry

     CASE: enthalpy_new < enthalpy_old

     new trust radius        =       0.4920239017 bohr
     new conv_thr            =            1.0E-12 Ry

     new unit-cell volume =    308.46595 a.u.^3 (    45.70994 Ang^3 )
     density =     10.94976 g/cm^3

CELL_PARAMETERS (alat=  9.11000000)
   0.824649964   0.000000000   0.000000000
   0.000000000   0.824649964   0.000000000
   0.000000000   0.000000000   0.599946891

ATOMIC_POSITIONS (crystal)
Sn       0.000317773   0.000317773   0.000000000
Sn       0.500331496   0.500331496   0.500000000
O        0.804764283   0.193964226   0.500000000
O        0.193964226   0.804764283   0.500000000
O        0.304707436   0.304707436   0.000000000
O        0.693914786   0.693914786   0.000000000



     Writing output data file SnO2.save
     NEW-OLD atomic charge density approx. for the potential

     Check: negative/imaginary core charge=   -0.001119    0.000000
     Check: negative starting charge=   -0.000709

     negative rho (up, down):  9.589E-04 0.000E+00
     extrapolated charge   66.16571, renormalised to   52.00000

     total cpu time spent up to now is      610.4 secs

     Self-consistent Calculation

     iteration #  1     ecut=    25.00 Ry     beta= 0.70
     Davidson diagonalization with overlap
     ethr =  1.00E-06,  avg # of iterations = 12.7

     negative rho (up, down):  2.042E-04 0.000E+00

     total cpu time spent up to now is      634.4 secs

     total energy              =    -429.79276889 Ry
     Harris-Foulkes estimate   =    -426.43257698 Ry
     estimated scf accuracy    <       6.54857563 Ry

     iteration #  2     ecut=    25.00 Ry     beta= 0.70
     Davidson diagonalization with overlap
     ethr =  1.00E-02,  avg # of iterations =  4.5

     negative rho (up, down):  9.667E-05 0.000E+00

     total cpu time spent up to now is      647.2 secs

     total energy              =    -441.89237288 Ry
     Harris-Foulkes estimate   =    -445.54861347 Ry
     estimated scf accuracy    <       8.39175832 Ry

     iteration #  3     ecut=    25.00 Ry     beta= 0.70
     Davidson diagonalization with overlap
     ethr =  1.00E-02,  avg # of iterations =  2.0

     negative rho (up, down):  3.941E-05 0.000E+00

     total cpu time spent up to now is      654.0 secs

     total energy              =    -441.66525077 Ry
     Harris-Foulkes estimate   =    -442.31019418 Ry
     estimated scf accuracy    <       1.94465003 Ry

     iteration #  4     ecut=    25.00 Ry     beta= 0.70
     Davidson diagonalization with overlap
     ethr =  3.74E-03,  avg # of iterations =  1.0

     total cpu time spent up to now is      660.0 secs

     total energy              =    -441.38893807 Ry
     Harris-Foulkes estimate   =    -441.72132157 Ry
     estimated scf accuracy    <       0.79058514 Ry

     iteration #  5     ecut=    25.00 Ry     beta= 0.70
     Davidson diagonalization with overlap
     ethr =  1.52E-03,  avg # of iterations =  1.7

     total cpu time spent up to now is      666.4 secs

     total energy              =    -441.32109877 Ry
     Harris-Foulkes estimate   =    -441.43130277 Ry
     estimated scf accuracy    <       0.17530467 Ry

     iteration #  6     ecut=    25.00 Ry     beta= 0.70
     Davidson diagonalization with overlap
     ethr =  3.37E-04,  avg # of iterations =  2.0

     total cpu time spent up to now is      675.2 secs

     total energy              =    -441.35748574 Ry
     Harris-Foulkes estimate   =    -441.35792897 Ry
     estimated scf accuracy    <       0.00075376 Ry

     iteration #  7     ecut=    25.00 Ry     beta= 0.70
     Davidson diagonalization with overlap
     ethr =  1.45E-06,  avg # of iterations =  2.4

     total cpu time spent up to now is      684.2 secs

     total energy              =    -441.35782547 Ry
     Harris-Foulkes estimate   =    -441.35789032 Ry
     estimated scf accuracy    <       0.00024380 Ry

     iteration #  8     ecut=    25.00 Ry     beta= 0.70
     Davidson diagonalization with overlap
     ethr =  4.69E-07,  avg # of iterations =  1.1

     total cpu time spent up to now is      690.2 secs

     total energy              =    -441.35778135 Ry
     Harris-Foulkes estimate   =    -441.35783666 Ry
     estimated scf accuracy    <       0.00010629 Ry

     iteration #  9     ecut=    25.00 Ry     beta= 0.70
     Davidson diagonalization with overlap
     ethr =  2.04E-07,  avg # of iterations =  2.0

     total cpu time spent up to now is      697.5 secs

     total energy              =    -441.35779003 Ry
     Harris-Foulkes estimate   =    -441.35779273 Ry
     estimated scf accuracy    <       0.00000575 Ry

     iteration # 10     ecut=    25.00 Ry     beta= 0.70
     Davidson diagonalization with overlap
     ethr =  1.11E-08,  avg # of iterations =  2.0

     total cpu time spent up to now is      705.5 secs

     total energy              =    -441.35779095 Ry
     Harris-Foulkes estimate   =    -441.35779115 Ry
     estimated scf accuracy    <       0.00000038 Ry

     iteration # 11     ecut=    25.00 Ry     beta= 0.70
     Davidson diagonalization with overlap
     ethr =  7.25E-10,  avg # of iterations =  2.0

     total cpu time spent up to now is      714.1 secs

     total energy              =    -441.35779100 Ry
     Harris-Foulkes estimate   =    -441.35779102 Ry
     estimated scf accuracy    <       0.00000004 Ry

     iteration # 12     ecut=    25.00 Ry     beta= 0.70
     Davidson diagonalization with overlap
     ethr =  8.57E-11,  avg # of iterations =  2.0

     total cpu time spent up to now is      721.8 secs

     total energy              =    -441.35779100 Ry
     Harris-Foulkes estimate   =    -441.35779100 Ry
     estimated scf accuracy    <          3.6E-09 Ry

     iteration # 13     ecut=    25.00 Ry     beta= 0.70
     Davidson diagonalization with overlap
     ethr =  6.93E-12,  avg # of iterations =  2.0

     total cpu time spent up to now is      729.4 secs

     total energy              =    -441.35779100 Ry
     Harris-Foulkes estimate   =    -441.35779100 Ry
     estimated scf accuracy    <          3.7E-10 Ry

     iteration # 14     ecut=    25.00 Ry     beta= 0.70
     Davidson diagonalization with overlap
     ethr =  7.08E-13,  avg # of iterations =  2.0

     total cpu time spent up to now is      737.6 secs

     total energy              =    -441.35779100 Ry
     Harris-Foulkes estimate   =    -441.35779100 Ry
     estimated scf accuracy    <          4.1E-11 Ry

     iteration # 15     ecut=    25.00 Ry     beta= 0.70
     Davidson diagonalization with overlap
     ethr =  1.00E-13,  avg # of iterations =  2.0

     total cpu time spent up to now is      745.0 secs

     total energy              =    -441.35779100 Ry
     Harris-Foulkes estimate   =    -441.35779100 Ry
     estimated scf accuracy    <          1.1E-12 Ry

     iteration # 16     ecut=    25.00 Ry     beta= 0.70
     Davidson diagonalization with overlap
     ethr =  1.00E-13,  avg # of iterations =  1.0

     total cpu time spent up to now is      751.0 secs

     End of self-consistent calculation

     Number of k-points >= 100: set verbosity='high' to print the bands.

     highest occupied level (ev):    19.7420

!    total energy              =    -441.35779100 Ry
     Harris-Foulkes estimate   =    -441.35779100 Ry
     estimated scf accuracy    <          8.1E-14 Ry

     The total energy is the sum of the following terms:

     one-electron contribution =     -31.30134540 Ry
     hartree contribution      =      72.96684297 Ry
     xc contribution           =    -123.33063783 Ry
     ewald contribution        =    -359.69265074 Ry

     convergence has been achieved in  16 iterations

     Forces acting on atoms (cartesian axes, Ry/au):

     atom    1 type  1   force =    -0.01661328   -0.01661328    0.00000000
     atom    2 type  1   force =    -0.00370559   -0.00370559    0.00000000
     atom    3 type  2   force =     0.04790335   -0.05241938    0.00000000
     atom    4 type  2   force =    -0.05241938    0.04790335    0.00000000
     atom    5 type  2   force =     0.06279825    0.06279825    0.00000000
     atom    6 type  2   force =    -0.03796335   -0.03796335    0.00000000

     Total force =     0.146404     Total SCF correction =     0.000000


     Computing stress (Cartesian axis) and pressure

          total   stress  (Ry/bohr**3)                   (kbar)     P=-4887.50
  -0.02706451   0.00000281   0.00000000      -3981.33      0.41      0.00
   0.00000281  -0.02706451   0.00000000          0.41  -3981.33      0.00
   0.00000000   0.00000000  -0.04554473          0.00      0.00  -6699.86


     number of scf cycles    =   6
     number of bfgs steps    =   4

     enthalpy old            =    -441.8158864694 Ry
     enthalpy new            =    -441.3577910023 Ry

     CASE: enthalpy_new > enthalpy_old

     new trust radius        =       0.2129138569 bohr
     new conv_thr            =            1.0E-12 Ry

     new unit-cell volume =    258.46989 a.u.^3 (    38.30129 Ang^3 )
     density =     13.06779 g/cm^3

CELL_PARAMETERS (alat=  9.11000000)
   0.787192319   0.000000000   0.000000000
   0.000000000   0.787192319   0.000000000
   0.000000000   0.000000000   0.551687488

ATOMIC_POSITIONS (crystal)
Sn       0.000131615   0.000131615   0.000000000
Sn       0.499902674   0.499902674   0.500000000
O        0.803622325   0.195167147   0.500000000
O        0.195167147   0.803622325   0.500000000
O        0.303815948   0.303815948   0.000000000
O        0.695360291   0.695360291   0.000000000



     Writing output data file SnO2.save
     Check: negative starting charge=   -0.000709
     NEW-OLD atomic charge density approx. for the potential

     Check: negative/imaginary core charge=   -0.000749    0.000000
     extrapolated charge   41.94219, renormalised to   52.00000

     total cpu time spent up to now is      755.2 secs

     Self-consistent Calculation

     iteration #  1     ecut=    25.00 Ry     beta= 0.70
     Davidson diagonalization with overlap
     ethr =  1.00E-06,  avg # of iterations =  6.0

     total cpu time spent up to now is      773.2 secs

     total energy              =    -439.61138027 Ry
     Harris-Foulkes estimate   =    -450.78718330 Ry
     estimated scf accuracy    <       2.61298084 Ry

     iteration #  2     ecut=    25.00 Ry     beta= 0.70
     Davidson diagonalization with overlap
     ethr =  5.02E-03,  avg # of iterations =  3.0

     total cpu time spent up to now is      782.9 secs

     total energy              =    -442.29017912 Ry
     Harris-Foulkes estimate   =    -443.03415165 Ry
     estimated scf accuracy    <       1.61715212 Ry

     iteration #  3     ecut=    25.00 Ry     beta= 0.70
     Davidson diagonalization with overlap
     ethr =  3.11E-03,  avg # of iterations =  2.0

     total cpu time spent up to now is      790.2 secs

     total energy              =    -442.36048634 Ry
     Harris-Foulkes estimate   =    -442.43727636 Ry
     estimated scf accuracy    <       0.15783647 Ry

     iteration #  4     ecut=    25.00 Ry     beta= 0.70
     Davidson diagonalization with overlap
     ethr =  3.04E-04,  avg # of iterations =  2.0

     total cpu time spent up to now is      797.6 secs

     total energy              =    -442.36904539 Ry
     Harris-Foulkes estimate   =    -442.37827201 Ry
     estimated scf accuracy    <       0.01451510 Ry

     iteration #  5     ecut=    25.00 Ry     beta= 0.70
     Davidson diagonalization with overlap
     ethr =  2.79E-05,  avg # of iterations =  2.3

     total cpu time spent up to now is      806.6 secs

     total energy              =    -442.37340238 Ry
     Harris-Foulkes estimate   =    -442.37424704 Ry
     estimated scf accuracy    <       0.00163365 Ry

     iteration #  6     ecut=    25.00 Ry     beta= 0.70
     Davidson diagonalization with overlap
     ethr =  3.14E-06,  avg # of iterations =  2.0

     total cpu time spent up to now is      814.3 secs

     total energy              =    -442.37358626 Ry
     Harris-Foulkes estimate   =    -442.37361907 Ry
     estimated scf accuracy    <       0.00006491 Ry

     iteration #  7     ecut=    25.00 Ry     beta= 0.70
     Davidson diagonalization with overlap
     ethr =  1.25E-07,  avg # of iterations =  2.0

     total cpu time spent up to now is      822.8 secs

     total energy              =    -442.37359493 Ry
     Harris-Foulkes estimate   =    -442.37359619 Ry
     estimated scf accuracy    <       0.00000317 Ry

     iteration #  8     ecut=    25.00 Ry     beta= 0.70
     Davidson diagonalization with overlap
     ethr =  6.10E-09,  avg # of iterations =  2.0

     total cpu time spent up to now is      830.1 secs

     total energy              =    -442.37359492 Ry
     Harris-Foulkes estimate   =    -442.37359522 Ry
     estimated scf accuracy    <       0.00000055 Ry

     iteration #  9     ecut=    25.00 Ry     beta= 0.70
     Davidson diagonalization with overlap
     ethr =  1.06E-09,  avg # of iterations =  2.0

     total cpu time spent up to now is      838.5 secs

     total energy              =    -442.37359502 Ry
     Harris-Foulkes estimate   =    -442.37359502 Ry
     estimated scf accuracy    <          2.8E-09 Ry

     iteration # 10     ecut=    25.00 Ry     beta= 0.70
     Davidson diagonalization with overlap
     ethr =  5.41E-12,  avg # of iterations =  3.0

     total cpu time spent up to now is      848.1 secs

     total energy              =    -442.37359502 Ry
     Harris-Foulkes estimate   =    -442.37359502 Ry
     estimated scf accuracy    <          4.4E-10 Ry

     iteration # 11     ecut=    25.00 Ry     beta= 0.70
     Davidson diagonalization with overlap
     ethr =  8.41E-13,  avg # of iterations =  2.0

     total cpu time spent up to now is      856.3 secs

     total energy              =    -442.37359502 Ry
     Harris-Foulkes estimate   =    -442.37359502 Ry
     estimated scf accuracy    <          3.2E-12 Ry

     iteration # 12     ecut=    25.00 Ry     beta= 0.70
     Davidson diagonalization with overlap
     ethr =  1.00E-13,  avg # of iterations =  1.0

     total cpu time spent up to now is      862.3 secs

     End of self-consistent calculation

     Number of k-points >= 100: set verbosity='high' to print the bands.

     highest occupied level (ev):    24.7881

!    total energy              =    -442.37359502 Ry
     Harris-Foulkes estimate   =    -442.37359502 Ry
     estimated scf accuracy    <          3.9E-13 Ry

     The total energy is the sum of the following terms:

     one-electron contribution =      -5.36439724 Ry
     hartree contribution      =      68.97652345 Ry
     xc contribution           =    -125.57559014 Ry
     ewald contribution        =    -380.41013109 Ry

     convergence has been achieved in  12 iterations

     Forces acting on atoms (cartesian axes, Ry/au):

     atom    1 type  1   force =    -0.01223507   -0.01223507    0.00000000
     atom    2 type  1   force =    -0.00129043   -0.00129043    0.00000000
     atom    3 type  2   force =     0.00138259   -0.00551727    0.00000000
     atom    4 type  2   force =    -0.00551727    0.00138259    0.00000000
     atom    5 type  2   force =     0.01232850    0.01232850    0.00000000
     atom    6 type  2   force =     0.00533168    0.00533168    0.00000000

     Total force =     0.026986     Total SCF correction =     0.000002


     Computing stress (Cartesian axis) and pressure

          total   stress  (Ry/bohr**3)                   (kbar)     P= -139.48
   0.00037511   0.00000110   0.00000000         55.18      0.16      0.00
   0.00000110   0.00037511   0.00000000          0.16     55.18      0.00
   0.00000000   0.00000000  -0.00359481          0.00      0.00   -528.81


     number of scf cycles    =   7
     number of bfgs steps    =   4

     enthalpy old            =    -441.8158864694 Ry
     enthalpy new            =    -442.3735950215 Ry

     CASE: enthalpy_new < enthalpy_old

     new trust radius        =       0.0495844742 bohr
     new conv_thr            =            1.0E-12 Ry

     new unit-cell volume =    258.08109 a.u.^3 (    38.24367 Ang^3 )
     density =     13.08747 g/cm^3

CELL_PARAMETERS (alat=  9.11000000)
   0.792736147   0.000000000   0.000000000
   0.000000000   0.792736147   0.000000000
   0.000000000   0.000000000   0.543179950

ATOMIC_POSITIONS (crystal)
Sn      -0.001119196  -0.001119196   0.000000000
Sn       0.499804906   0.499804906   0.500000000
O        0.800621455   0.197790129   0.500000000
O        0.197790129   0.800621455   0.500000000
O        0.301869144   0.301869144   0.000000000
O        0.699033563   0.699033563   0.000000000



     Writing output data file SnO2.save
     NEW-OLD atomic charge density approx. for the potential

     Check: negative/imaginary core charge=   -0.000740    0.000000
     extrapolated charge   51.92167, renormalised to   52.00000

     total cpu time spent up to now is      866.7 secs

     Self-consistent Calculation

     iteration #  1     ecut=    25.00 Ry     beta= 0.70
     Davidson diagonalization with overlap
     ethr =  1.00E-06,  avg # of iterations =  5.0

     total cpu time spent up to now is      881.7 secs

     total energy              =    -442.37834622 Ry
     Harris-Foulkes estimate   =    -442.44749073 Ry
     estimated scf accuracy    <       0.00156285 Ry

     iteration #  2     ecut=    25.00 Ry     beta= 0.70
     Davidson diagonalization with overlap
     ethr =  3.01E-06,  avg # of iterations =  2.0

     total cpu time spent up to now is      890.4 secs

     total energy              =    -442.37873424 Ry
     Harris-Foulkes estimate   =    -442.37880675 Ry
     estimated scf accuracy    <       0.00018237 Ry

     iteration #  3     ecut=    25.00 Ry     beta= 0.70
     Davidson diagonalization with overlap
     ethr =  3.51E-07,  avg # of iterations =  2.0

     total cpu time spent up to now is      898.6 secs

     total energy              =    -442.37876591 Ry
     Harris-Foulkes estimate   =    -442.37876532 Ry
     estimated scf accuracy    <       0.00000975 Ry

     iteration #  4     ecut=    25.00 Ry     beta= 0.70
     Davidson diagonalization with overlap
     ethr =  1.87E-08,  avg # of iterations =  2.0

     total cpu time spent up to now is      907.1 secs

     total energy              =    -442.37876758 Ry
     Harris-Foulkes estimate   =    -442.37876829 Ry
     estimated scf accuracy    <       0.00000158 Ry

     iteration #  5     ecut=    25.00 Ry     beta= 0.70
     Davidson diagonalization with overlap
     ethr =  3.05E-09,  avg # of iterations =  2.3

     total cpu time spent up to now is      915.8 secs

     total energy              =    -442.37876798 Ry
     Harris-Foulkes estimate   =    -442.37876807 Ry
     estimated scf accuracy    <       0.00000022 Ry

     iteration #  6     ecut=    25.00 Ry     beta= 0.70
     Davidson diagonalization with overlap
     ethr =  4.25E-10,  avg # of iterations =  2.1

     total cpu time spent up to now is      924.2 secs

     total energy              =    -442.37876803 Ry
     Harris-Foulkes estimate   =    -442.37876804 Ry
     estimated scf accuracy    <       0.00000001 Ry

     iteration #  7     ecut=    25.00 Ry     beta= 0.70
     Davidson diagonalization with overlap
     ethr =  2.44E-11,  avg # of iterations =  2.0

     total cpu time spent up to now is      932.3 secs

     total energy              =    -442.37876803 Ry
     Harris-Foulkes estimate   =    -442.37876803 Ry
     estimated scf accuracy    <          1.2E-10 Ry

     iteration #  8     ecut=    25.00 Ry     beta= 0.70
     Davidson diagonalization with overlap
     ethr =  2.35E-13,  avg # of iterations =  2.5

     total cpu time spent up to now is      941.4 secs

     total energy              =    -442.37876803 Ry
     Harris-Foulkes estimate   =    -442.37876803 Ry
     estimated scf accuracy    <          9.5E-12 Ry

     iteration #  9     ecut=    25.00 Ry     beta= 0.70
     Davidson diagonalization with overlap
     ethr =  1.00E-13,  avg # of iterations =  1.8

     total cpu time spent up to now is      947.8 secs

     End of self-consistent calculation

     Number of k-points >= 100: set verbosity='high' to print the bands.

     highest occupied level (ev):    24.7305

!    total energy              =    -442.37876803 Ry
     Harris-Foulkes estimate   =    -442.37876803 Ry
     estimated scf accuracy    <          9.5E-13 Ry

     The total energy is the sum of the following terms:

     one-electron contribution =      -6.02796854 Ry
     hartree contribution      =      69.34012206 Ry
     xc contribution           =    -125.62176705 Ry
     ewald contribution        =    -380.06915451 Ry

     convergence has been achieved in   9 iterations

     Forces acting on atoms (cartesian axes, Ry/au):

     atom    1 type  1   force =     0.04482511    0.04482511    0.00000000
     atom    2 type  1   force =     0.00847853    0.00847853    0.00000000
     atom    3 type  2   force =     0.01120681   -0.00591138    0.00000000
     atom    4 type  2   force =    -0.00591138    0.01120681    0.00000000
     atom    5 type  2   force =    -0.02026147   -0.02026147    0.00000000
     atom    6 type  2   force =    -0.03833759   -0.03833759    0.00000000

     Total force =     0.090797     Total SCF correction =     0.000003


     Computing stress (Cartesian axis) and pressure

          total   stress  (Ry/bohr**3)                   (kbar)     P=  -26.33
  -0.00037560   0.00000675   0.00000000        -55.25      0.99      0.00
   0.00000675  -0.00037560   0.00000000          0.99    -55.25      0.00
   0.00000000   0.00000000   0.00021418          0.00      0.00     31.51


     number of scf cycles    =   8
     number of bfgs steps    =   5

     enthalpy old            =    -442.3735950215 Ry
     enthalpy new            =    -442.3787680340 Ry

     CASE: enthalpy_new < enthalpy_old

     new trust radius        =       0.0280469457 bohr
     new conv_thr            =            1.0E-12 Ry

     new unit-cell volume =    257.70294 a.u.^3 (    38.18764 Ang^3 )
     density =     13.10668 g/cm^3

CELL_PARAMETERS (alat=  9.11000000)
   0.791985283   0.000000000   0.000000000
   0.000000000   0.791985283   0.000000000
   0.000000000   0.000000000   0.543413003

ATOMIC_POSITIONS (crystal)
Sn       0.001626949   0.001626949   0.000000000
Sn       0.500341795   0.500341795   0.500000000
O        0.801116879   0.197583238   0.500000000
O        0.197583238   0.801116879   0.500000000
O        0.300466196   0.300466196   0.000000000
O        0.696864943   0.696864943   0.000000000



     Writing output data file SnO2.save
     NEW-OLD atomic charge density approx. for the potential

     Check: negative/imaginary core charge=   -0.000737    0.000000
     extrapolated charge   51.92370, renormalised to   52.00000

     total cpu time spent up to now is      952.2 secs

     Self-consistent Calculation

     iteration #  1     ecut=    25.00 Ry     beta= 0.70
     Davidson diagonalization with overlap
     ethr =  1.00E-06,  avg # of iterations =  4.2

     total cpu time spent up to now is      966.5 secs

     total energy              =    -442.37749113 Ry
     Harris-Foulkes estimate   =    -442.44429233 Ry
     estimated scf accuracy    <       0.00064915 Ry

     iteration #  2     ecut=    25.00 Ry     beta= 0.70
     Davidson diagonalization with overlap
     ethr =  1.25E-06,  avg # of iterations =  2.0

     total cpu time spent up to now is      975.2 secs

     total energy              =    -442.37772816 Ry
     Harris-Foulkes estimate   =    -442.37780088 Ry
     estimated scf accuracy    <       0.00015399 Ry

     iteration #  3     ecut=    25.00 Ry     beta= 0.70
     Davidson diagonalization with overlap
     ethr =  2.96E-07,  avg # of iterations =  2.0

     total cpu time spent up to now is      983.0 secs

     total energy              =    -442.37775158 Ry
     Harris-Foulkes estimate   =    -442.37775269 Ry
     estimated scf accuracy    <       0.00000860 Ry

     iteration #  4     ecut=    25.00 Ry     beta= 0.70
     Davidson diagonalization with overlap
     ethr =  1.65E-08,  avg # of iterations =  2.0

     total cpu time spent up to now is      991.7 secs

     total energy              =    -442.37775317 Ry
     Harris-Foulkes estimate   =    -442.37775443 Ry
     estimated scf accuracy    <       0.00000239 Ry

     iteration #  5     ecut=    25.00 Ry     beta= 0.70
     Davidson diagonalization with overlap
     ethr =  4.59E-09,  avg # of iterations =  2.3

     total cpu time spent up to now is     1000.2 secs

     total energy              =    -442.37775377 Ry
     Harris-Foulkes estimate   =    -442.37775384 Ry
     estimated scf accuracy    <       0.00000017 Ry

     iteration #  6     ecut=    25.00 Ry     beta= 0.70
     Davidson diagonalization with overlap
     ethr =  3.23E-10,  avg # of iterations =  2.0

     total cpu time spent up to now is     1008.5 secs

     total energy              =    -442.37775380 Ry
     Harris-Foulkes estimate   =    -442.37775381 Ry
     estimated scf accuracy    <          1.0E-08 Ry

     iteration #  7     ecut=    25.00 Ry     beta= 0.70
     Davidson diagonalization with overlap
     ethr =  1.92E-11,  avg # of iterations =  2.0

     total cpu time spent up to now is     1017.1 secs

     total energy              =    -442.37775380 Ry
     Harris-Foulkes estimate   =    -442.37775380 Ry
     estimated scf accuracy    <          2.3E-10 Ry

     iteration #  8     ecut=    25.00 Ry     beta= 0.70
     Davidson diagonalization with overlap
     ethr =  4.38E-13,  avg # of iterations =  2.8

     total cpu time spent up to now is     1025.8 secs

     total energy              =    -442.37775380 Ry
     Harris-Foulkes estimate   =    -442.37775380 Ry
     estimated scf accuracy    <          3.4E-11 Ry

     iteration #  9     ecut=    25.00 Ry     beta= 0.70
     Davidson diagonalization with overlap
     ethr =  1.00E-13,  avg # of iterations =  2.6

     total cpu time spent up to now is     1033.6 secs

     total energy              =    -442.37775380 Ry
     Harris-Foulkes estimate   =    -442.37775380 Ry
     estimated scf accuracy    <          2.9E-12 Ry

     iteration # 10     ecut=    25.00 Ry     beta= 0.70
     Davidson diagonalization with overlap
     ethr =  1.00E-13,  avg # of iterations =  1.0

     total cpu time spent up to now is     1039.8 secs

     End of self-consistent calculation

     Number of k-points >= 100: set verbosity='high' to print the bands.

     highest occupied level (ev):    24.7865

!    total energy              =    -442.37775380 Ry
     Harris-Foulkes estimate   =    -442.37775380 Ry
     estimated scf accuracy    <          1.0E-13 Ry

     The total energy is the sum of the following terms:

     one-electron contribution =      -5.76569489 Ry
     hartree contribution      =      69.29260524 Ry
     xc contribution           =    -125.63895824 Ry
     ewald contribution        =    -380.26570591 Ry

     convergence has been achieved in  10 iterations

     Forces acting on atoms (cartesian axes, Ry/au):

     atom    1 type  1   force =    -0.07578997   -0.07578997    0.00000000
     atom    2 type  1   force =    -0.01492825   -0.01492825    0.00000000
     atom    3 type  2   force =    -0.00434615   -0.01302149    0.00000000
     atom    4 type  2   force =    -0.01302149   -0.00434615    0.00000000
     atom    5 type  2   force =     0.05912869    0.05912869    0.00000000
     atom    6 type  2   force =     0.04895717    0.04895717    0.00000000

     Total force =     0.155232     Total SCF correction =     0.000001


     Computing stress (Cartesian axis) and pressure

          total   stress  (Ry/bohr**3)                   (kbar)     P=   19.51
  -0.00003836   0.00002169   0.00000000         -5.64      3.19      0.00
   0.00002169  -0.00003836   0.00000000          3.19     -5.64      0.00
   0.00000000   0.00000000   0.00047465          0.00      0.00     69.82


     number of scf cycles    =   9
     number of bfgs steps    =   6

     enthalpy old            =    -442.3787680340 Ry
     enthalpy new            =    -442.3777538044 Ry

     CASE: enthalpy_new > enthalpy_old

     new trust radius        =       0.0110340904 bohr
     new conv_thr            =            1.0E-12 Ry

     new unit-cell volume =    257.93218 a.u.^3 (    38.22160 Ang^3 )
     density =     13.09503 g/cm^3

CELL_PARAMETERS (alat=  9.11000000)
   0.792440466   0.000000000   0.000000000
   0.000000000   0.792440466   0.000000000
   0.000000000   0.000000000   0.543271724

ATOMIC_POSITIONS (crystal)
Sn      -0.000037797  -0.000037797   0.000000000
Sn       0.500016327   0.500016327   0.500000000
O        0.800816547   0.197708657   0.500000000
O        0.197708657   0.800816547   0.500000000
O        0.301316680   0.301316680   0.000000000
O        0.698179586   0.698179586   0.000000000



     Writing output data file SnO2.save
     NEW-OLD atomic charge density approx. for the potential

     Check: negative/imaginary core charge=   -0.000739    0.000000
     extrapolated charge   52.04621, renormalised to   52.00000

     total cpu time spent up to now is     1044.0 secs

     Self-consistent Calculation

     iteration #  1     ecut=    25.00 Ry     beta= 0.70
     Davidson diagonalization with overlap
     ethr =  1.00E-06,  avg # of iterations =  4.0

     total cpu time spent up to now is     1057.5 secs

     total energy              =    -442.37940765 Ry
     Harris-Foulkes estimate   =    -442.33920439 Ry
     estimated scf accuracy    <       0.00024187 Ry

     iteration #  2     ecut=    25.00 Ry     beta= 0.70
     Davidson diagonalization with overlap
     ethr =  4.65E-07,  avg # of iterations =  2.0

     total cpu time spent up to now is     1066.2 secs

     total energy              =    -442.37949658 Ry
     Harris-Foulkes estimate   =    -442.37952392 Ry
     estimated scf accuracy    <       0.00005755 Ry

     iteration #  3     ecut=    25.00 Ry     beta= 0.70
     Davidson diagonalization with overlap
     ethr =  1.11E-07,  avg # of iterations =  2.0

     total cpu time spent up to now is     1074.0 secs

     total energy              =    -442.37950528 Ry
     Harris-Foulkes estimate   =    -442.37950583 Ry
     estimated scf accuracy    <       0.00000336 Ry

     iteration #  4     ecut=    25.00 Ry     beta= 0.70
     Davidson diagonalization with overlap
     ethr =  6.46E-09,  avg # of iterations =  2.1

     total cpu time spent up to now is     1082.8 secs

     total energy              =    -442.37950592 Ry
     Harris-Foulkes estimate   =    -442.37950645 Ry
     estimated scf accuracy    <       0.00000099 Ry

     iteration #  5     ecut=    25.00 Ry     beta= 0.70
     Davidson diagonalization with overlap
     ethr =  1.90E-09,  avg # of iterations =  2.3

     total cpu time spent up to now is     1091.2 secs

     total energy              =    -442.37950617 Ry
     Harris-Foulkes estimate   =    -442.37950619 Ry
     estimated scf accuracy    <       0.00000006 Ry

     iteration #  6     ecut=    25.00 Ry     beta= 0.70
     Davidson diagonalization with overlap
     ethr =  1.15E-10,  avg # of iterations =  2.0

     total cpu time spent up to now is     1099.6 secs

     total energy              =    -442.37950618 Ry
     Harris-Foulkes estimate   =    -442.37950618 Ry
     estimated scf accuracy    <          3.6E-09 Ry

     iteration #  7     ecut=    25.00 Ry     beta= 0.70
     Davidson diagonalization with overlap
     ethr =  6.99E-12,  avg # of iterations =  2.0

     total cpu time spent up to now is     1108.2 secs

     total energy              =    -442.37950618 Ry
     Harris-Foulkes estimate   =    -442.37950618 Ry
     estimated scf accuracy    <          1.0E-10 Ry

     iteration #  8     ecut=    25.00 Ry     beta= 0.70
     Davidson diagonalization with overlap
     ethr =  1.93E-13,  avg # of iterations =  2.9

     total cpu time spent up to now is     1116.8 secs

     total energy              =    -442.37950618 Ry
     Harris-Foulkes estimate   =    -442.37950618 Ry
     estimated scf accuracy    <          1.6E-11 Ry

     iteration #  9     ecut=    25.00 Ry     beta= 0.70
     Davidson diagonalization with overlap
     ethr =  1.00E-13,  avg # of iterations =  2.0

     total cpu time spent up to now is     1123.6 secs

     End of self-consistent calculation

     Number of k-points >= 100: set verbosity='high' to print the bands.

     highest occupied level (ev):    24.7527

!    total energy              =    -442.37950618 Ry
     Harris-Foulkes estimate   =    -442.37950618 Ry
     estimated scf accuracy    <          9.4E-13 Ry

     The total energy is the sum of the following terms:

     one-electron contribution =      -5.91440255 Ry
     hartree contribution      =      69.31648496 Ry
     xc contribution           =    -125.62819722 Ry
     ewald contribution        =    -380.15339136 Ry

     convergence has been achieved in   9 iterations

     Forces acting on atoms (cartesian axes, Ry/au):

     atom    1 type  1   force =    -0.00279128   -0.00279128    0.00000000
     atom    2 type  1   force =    -0.00073149   -0.00073149    0.00000000
     atom    3 type  2   force =     0.00505520   -0.00866313    0.00000000
     atom    4 type  2   force =    -0.00866313    0.00505520    0.00000000
     atom    5 type  2   force =     0.01001861    0.01001861    0.00000000
     atom    6 type  2   force =    -0.00288790   -0.00288790    0.00000000

     Total force =     0.020864     Total SCF correction =     0.000002


     Computing stress (Cartesian axis) and pressure

          total   stress  (Ry/bohr**3)                   (kbar)     P=   -9.60
  -0.00025549  -0.00000186   0.00000000        -37.58     -0.27      0.00
  -0.00000186  -0.00025549   0.00000000         -0.27    -37.58      0.00
   0.00000000   0.00000000   0.00031518          0.00      0.00     46.37


     number of scf cycles    =  10
     number of bfgs steps    =   6

     enthalpy old            =    -442.3787680340 Ry
     enthalpy new            =    -442.3795061799 Ry

     CASE: enthalpy_new < enthalpy_old

     new trust radius        =       0.0117454433 bohr
     new conv_thr            =            1.0E-12 Ry

     new unit-cell volume =    257.70612 a.u.^3 (    38.18811 Ang^3 )
     density =     13.10652 g/cm^3

CELL_PARAMETERS (alat=  9.11000000)
   0.790656153   0.000000000   0.000000000
   0.000000000   0.790656153   0.000000000
   0.000000000   0.000000000   0.545248256

ATOMIC_POSITIONS (crystal)
Sn      -0.000041566  -0.000041566   0.000000000
Sn       0.499990533   0.499990533   0.500000000
O        0.801702122   0.196540111   0.500000000
O        0.196540111   0.801702122   0.500000000
O        0.302467134   0.302467134   0.000000000
O        0.697341667   0.697341667   0.000000000



     Writing output data file SnO2.save
     NEW-OLD atomic charge density approx. for the potential

     Check: negative/imaginary core charge=   -0.000739    0.000000
     extrapolated charge   51.95439, renormalised to   52.00000

     total cpu time spent up to now is     1127.9 secs

     Self-consistent Calculation

     iteration #  1     ecut=    25.00 Ry     beta= 0.70
     Davidson diagonalization with overlap
     ethr =  1.00E-06,  avg # of iterations =  4.0

     total cpu time spent up to now is     1140.9 secs

     total energy              =    -442.37971506 Ry
     Harris-Foulkes estimate   =    -442.41944984 Ry
     estimated scf accuracy    <       0.00021207 Ry

     iteration #  2     ecut=    25.00 Ry     beta= 0.70
     Davidson diagonalization with overlap
     ethr =  4.08E-07,  avg # of iterations =  2.0

     total cpu time spent up to now is     1149.6 secs

     total energy              =    -442.37980835 Ry
     Harris-Foulkes estimate   =    -442.37983264 Ry
     estimated scf accuracy    <       0.00004900 Ry

     iteration #  3     ecut=    25.00 Ry     beta= 0.70
     Davidson diagonalization with overlap
     ethr =  9.42E-08,  avg # of iterations =  2.0

     total cpu time spent up to now is     1157.2 secs

     total energy              =    -442.37981435 Ry
     Harris-Foulkes estimate   =    -442.37981473 Ry
     estimated scf accuracy    <       0.00000220 Ry

     iteration #  4     ecut=    25.00 Ry     beta= 0.70
     Davidson diagonalization with overlap
     ethr =  4.23E-09,  avg # of iterations =  2.0

     total cpu time spent up to now is     1165.7 secs

     total energy              =    -442.37981477 Ry
     Harris-Foulkes estimate   =    -442.37981486 Ry
     estimated scf accuracy    <       0.00000018 Ry

     iteration #  5     ecut=    25.00 Ry     beta= 0.70
     Davidson diagonalization with overlap
     ethr =  3.51E-10,  avg # of iterations =  2.0

     total cpu time spent up to now is     1174.4 secs

     total energy              =    -442.37981481 Ry
     Harris-Foulkes estimate   =    -442.37981482 Ry
     estimated scf accuracy    <       0.00000003 Ry

     iteration #  6     ecut=    25.00 Ry     beta= 0.70
     Davidson diagonalization with overlap
     ethr =  5.88E-11,  avg # of iterations =  2.0

     total cpu time spent up to now is     1182.8 secs

     total energy              =    -442.37981482 Ry
     Harris-Foulkes estimate   =    -442.37981482 Ry
     estimated scf accuracy    <          3.3E-09 Ry

     iteration #  7     ecut=    25.00 Ry     beta= 0.70
     Davidson diagonalization with overlap
     ethr =  6.32E-12,  avg # of iterations =  2.0

     total cpu time spent up to now is     1190.8 secs

     total energy              =    -442.37981482 Ry
     Harris-Foulkes estimate   =    -442.37981482 Ry
     estimated scf accuracy    <          5.6E-11 Ry

     iteration #  8     ecut=    25.00 Ry     beta= 0.70
     Davidson diagonalization with overlap
     ethr =  1.07E-13,  avg # of iterations =  2.1

     total cpu time spent up to now is     1199.6 secs

     total energy              =    -442.37981482 Ry
     Harris-Foulkes estimate   =    -442.37981482 Ry
     estimated scf accuracy    <          2.5E-12 Ry

     iteration #  9     ecut=    25.00 Ry     beta= 0.70
     Davidson diagonalization with overlap
     ethr =  1.00E-13,  avg # of iterations =  1.0

     total cpu time spent up to now is     1205.5 secs

     End of self-consistent calculation

     Number of k-points >= 100: set verbosity='high' to print the bands.

     highest occupied level (ev):    24.8118

!    total energy              =    -442.37981482 Ry
     Harris-Foulkes estimate   =    -442.37981482 Ry
     estimated scf accuracy    <          1.4E-13 Ry

     The total energy is the sum of the following terms:

     one-electron contribution =      -5.57855710 Ry
     hartree contribution      =      69.21101525 Ry
     xc contribution           =    -125.63319804 Ry
     ewald contribution        =    -380.37907493 Ry

     convergence has been achieved in   9 iterations

     Forces acting on atoms (cartesian axes, Ry/au):

[...]

     total cpu time spent up to now is     4193.7 secs

     End of self-consistent calculation

     Number of k-points >= 100: set verbosity='high' to print the bands.

     highest occupied level (ev):    26.0562

!    total energy              =    -442.66433406 Ry
     Harris-Foulkes estimate   =    -442.66433406 Ry
     estimated scf accuracy    <          5.7E-13 Ry

     The total energy is the sum of the following terms:

     one-electron contribution =      12.86703990 Ry
     hartree contribution      =      61.93914985 Ry
     xc contribution           =    -125.33940066 Ry
     ewald contribution        =    -392.13112314 Ry

     convergence has been achieved in   5 iterations

     Forces acting on atoms (cartesian axes, Ry/au):

     atom    1 type  1   force =     0.00000707    0.00000707    0.00000000
     atom    2 type  1   force =    -0.00012685   -0.00012685    0.00000000
     atom    3 type  2   force =    -0.00003599    0.00005686    0.00000000
     atom    4 type  2   force =     0.00005686   -0.00003599    0.00000000
     atom    5 type  2   force =    -0.00010027   -0.00010027    0.00000000
     atom    6 type  2   force =     0.00019917    0.00019917    0.00000000

     Total force =     0.000375     Total SCF correction =     0.000004


     Computing stress (Cartesian axis) and pressure

          total   stress  (Ry/bohr**3)                   (kbar)     P=    0.11
  -0.00000323   0.00717141   0.00000000         -0.48   1054.95      0.00
   0.00717141  -0.00000323   0.00000000       1054.95     -0.48      0.00
   0.00000000   0.00000000   0.00000871          0.00      0.00      1.28


     number of scf cycles    =  43
     number of bfgs steps    =  35

     enthalpy old            =    -442.6643340973 Ry
     enthalpy new            =    -442.6643340565 Ry

     CASE: enthalpy_new > enthalpy_old

     new trust radius        =       0.0000219131 bohr

     trust_radius < trust_radius_min

     resetting bfgs history

     Message from routine bfgs:
     history already reset at previous step: stopping
     new conv_thr            =            1.0E-12 Ry

     new unit-cell volume =    250.36859 a.u.^3 (    37.10080 Ang^3 )
     density =     13.49063 g/cm^3

CELL_PARAMETERS (alat=  9.11000000)
   0.780819087   0.000000000   0.000000000
   0.000000000   0.780819087   0.000000000
   0.000000000   0.000000000   0.543155114

ATOMIC_POSITIONS (crystal)
Sn       0.046618173   0.046618173   0.000000000
Sn       0.555506542   0.555506542   0.500000000
O        0.703274173   0.115752686   0.500000000
O        0.115752686   0.703274173   0.500000000
O        0.344110936   0.344110936   0.000000000
O        0.732737490   0.732737490   0.000000000



     Writing output data file SnO2.save
     NEW-OLD atomic charge density approx. for the potential

     Check: negative/imaginary core charge=   -0.000686    0.000000
     extrapolated charge   52.00003, renormalised to   52.00000

     total cpu time spent up to now is     4198.1 secs

     Self-consistent Calculation

     iteration #  1     ecut=    25.00 Ry     beta= 0.70
     Davidson diagonalization with overlap
     ethr =  1.00E-06,  avg # of iterations =  1.0

     Threshold (ethr) on eigenvalues was too large:
     Diagonalizing with lowered threshold

     Davidson diagonalization with overlap
     ethr =  1.90E-11,  avg # of iterations =  3.4

     total cpu time spent up to now is     4215.6 secs

     total energy              =    -442.66433393 Ry
     Harris-Foulkes estimate   =    -442.66431663 Ry
     estimated scf accuracy    <          1.8E-09 Ry

     iteration #  2     ecut=    25.00 Ry     beta= 0.70
     Davidson diagonalization with overlap
     ethr =  3.55E-12,  avg # of iterations =  3.0

     total cpu time spent up to now is     4224.2 secs

     total energy              =    -442.66433393 Ry
     Harris-Foulkes estimate   =    -442.66433393 Ry
     estimated scf accuracy    <          6.0E-10 Ry

     iteration #  3     ecut=    25.00 Ry     beta= 0.70
     Davidson diagonalization with overlap
     ethr =  1.15E-12,  avg # of iterations =  3.0

     total cpu time spent up to now is     4232.4 secs

     total energy              =    -442.66433393 Ry
     Harris-Foulkes estimate   =    -442.66433393 Ry
     estimated scf accuracy    <          7.5E-11 Ry

     iteration #  4     ecut=    25.00 Ry     beta= 0.70
     Davidson diagonalization with overlap
     ethr =  1.44E-13,  avg # of iterations =  3.0

     total cpu time spent up to now is     4240.7 secs

     total energy              =    -442.66433393 Ry
     Harris-Foulkes estimate   =    -442.66433393 Ry
     estimated scf accuracy    <          3.8E-12 Ry

     iteration #  5     ecut=    25.00 Ry     beta= 0.70
     Davidson diagonalization with overlap
     ethr =  1.00E-13,  avg # of iterations =  1.0

     total cpu time spent up to now is     4246.7 secs

     End of self-consistent calculation

     Number of k-points >= 100: set verbosity='high' to print the bands.

     highest occupied level (ev):    26.0560

!    total energy              =    -442.66433393 Ry
     Harris-Foulkes estimate   =    -442.66433393 Ry
     estimated scf accuracy    <          2.3E-13 Ry

     The total energy is the sum of the following terms:

     one-electron contribution =      12.86572113 Ry
     hartree contribution      =      61.93974880 Ry
     xc contribution           =    -125.33941466 Ry
     ewald contribution        =    -392.13038921 Ry

     convergence has been achieved in   5 iterations

     Forces acting on atoms (cartesian axes, Ry/au):

     atom    1 type  1   force =     0.00000264    0.00000264    0.00000000
     atom    2 type  1   force =    -0.00025446   -0.00025446    0.00000000
     atom    3 type  2   force =    -0.00005727    0.00011180    0.00000000
     atom    4 type  2   force =     0.00011180   -0.00005727    0.00000000
     atom    5 type  2   force =    -0.00018359   -0.00018359    0.00000000
     atom    6 type  2   force =     0.00038087    0.00038087    0.00000000

     Total force =     0.000720     Total SCF correction =     0.000003


     Computing stress (Cartesian axis) and pressure

          total   stress  (Ry/bohr**3)                   (kbar)     P=    0.19
  -0.00000648   0.00717144   0.00000000         -0.95   1054.96      0.00
   0.00717144  -0.00000648   0.00000000       1054.96     -0.95      0.00
   0.00000000   0.00000000   0.00001686          0.00      0.00      2.48


     bfgs converged in  44 scf cycles and  35 bfgs steps
     (criteria: energy <  1.0E-10 Ry, force <  1.0E-09Ry/Bohr, cell <  5.0E-01kbar)

     End of BFGS Geometry Optimization

     Final enthalpy =    -442.6643339314 Ry
Begin final coordinates
     new unit-cell volume =    250.36859 a.u.^3 (    37.10080 Ang^3 )
     density =     13.49063 g/cm^3

CELL_PARAMETERS (alat=  9.11000000)
   0.780819087   0.000000000   0.000000000
   0.000000000   0.780819087   0.000000000
   0.000000000   0.000000000   0.543155114

ATOMIC_POSITIONS (crystal)
Sn       0.046618173   0.046618173   0.000000000
Sn       0.555506542   0.555506542   0.500000000
O        0.703274173   0.115752686   0.500000000
O        0.115752686   0.703274173   0.500000000
O        0.344110936   0.344110936   0.000000000
O        0.732737490   0.732737490   0.000000000
End final coordinates



     A final scf calculation at the relaxed structure.
     The G-vectors are recalculated for the final unit cell
     Results may differ from those at the preceding step.
 
     Parallelization info
     --------------------
     sticks:   dense  smooth     PW     G-vecs:    dense   smooth      PW
     Min         202     202     68                 2125     2125     436
     Max         203     203     69                 2126     2126     437
     Sum         405     405    137                 4251     4251     873
 


     bravais-lattice index     =            6
     lattice parameter (alat)  =       9.1100  a.u.
     unit-cell volume          =     250.3686 (a.u.)^3
     number of atoms/cell      =            6
     number of atomic types    =            2
     number of electrons       =        52.00
     number of Kohn-Sham states=           26
     kinetic-energy cutoff     =      25.0000  Ry
     charge density cutoff     =     100.0000  Ry
     convergence threshold     =      1.0E-12
     mixing beta               =       0.7000
     number of iterations used =            8  plain     mixing
     Exchange-correlation      = PBE ( 1  4  3  4 0 0)

     celldm(1)=   9.110000  celldm(2)=   0.000000  celldm(3)=   0.670000
     celldm(4)=   0.000000  celldm(5)=   0.000000  celldm(6)=   0.000000

     crystal axes: (cart. coord. in units of alat)
               a(1) = (   0.780819   0.000000   0.000000 )  
               a(2) = (   0.000000   0.780819   0.000000 )  
               a(3) = (   0.000000   0.000000   0.543155 )  

     reciprocal axes: (cart. coord. in units 2 pi/alat)
               b(1) = (  1.280706  0.000000  0.000000 )  
               b(2) = (  0.000000  1.280706  0.000000 )  
               b(3) = (  0.000000  0.000000  1.841095 )  


     PseudoPot. # 1 for Sn read from file:
     ../../Pseudo_potentials/Sn_PBE.upf
     MD5 check sum: 78e6386ae56e929f0568ae8bf606a80c
     Pseudo is Norm-conserving + core correction, Zval = 14.0
     Generated using ONCVPSP code by D. R. Hamann
     Using radial grid of 1628 points,  6 beta functions with: 
                l(1) =   0
                l(2) =   0
                l(3) =   1
                l(4) =   1
                l(5) =   2
                l(6) =   2

     PseudoPot. # 2 for O  read from file:
     ../../Pseudo_potentials/O_PBE.upf
     MD5 check sum: 3e3f909f7470e8921608ab6b1f57bbae
     Pseudo is Norm-conserving + core correction, Zval =  6.0
     Generated using ONCVPSP code by D. R. Hamann
     Using radial grid of  936 points,  5 beta functions with: 
                l(1) =   0
                l(2) =   0
                l(3) =   1
                l(4) =   1
                l(5) =   2

     atomic species   valence    mass     pseudopotential
        Sn            14.00   118.71000     Sn( 1.00)
        O              6.00    15.99900     O ( 1.00)

      4 Sym. Ops. (no inversion) found



   Cartesian axes

     site n.     atom                  positions (alat units)
         1           Sn  tau(   1) = (   0.0364004   0.0364004   0.0000000  )
         2           Sn  tau(   2) = (   0.4337501   0.4337501   0.2715776  )
         3           O   tau(   3) = (   0.5491299   0.0903819   0.2715776  )
         4           O   tau(   4) = (   0.0903819   0.5491299   0.2715776  )
         5           O   tau(   5) = (   0.2686884   0.2686884   0.0000000  )
         6           O   tau(   6) = (   0.5721354   0.5721354   0.0000000  )

     number of k points=   105

     Number of k-points >= 100: set verbosity='high' to print them.

     Dense  grid:     4251 G-vectors     FFT dimensions: (  24,  24,  15)

     Estimated max dynamical RAM per process >      18.81 MB

     Estimated total dynamical RAM >      37.63 MB

     Check: negative/imaginary core charge=   -0.003336    0.000000

     Initial potential from superposition of free atoms
     Check: negative starting charge=   -0.004679

     starting charge   51.99690, renormalised to   52.00000

     negative rho (up, down):  4.679E-03 0.000E+00
     Starting wfc are   34 randomized atomic wfcs

     Writing output data file SnO2.save

     total cpu time spent up to now is     4252.0 secs

     Self-consistent Calculation

     iteration #  1     ecut=    25.00 Ry     beta= 0.70
     Davidson diagonalization with overlap
     ethr =  1.00E-06,  avg # of iterations =  7.1

     negative rho (up, down):  1.369E-03 0.000E+00

     total cpu time spent up to now is     4262.4 secs

     total energy              =    -426.27188959 Ry
     Harris-Foulkes estimate   =    -429.52336284 Ry
     estimated scf accuracy    <       4.44871506 Ry

     iteration #  2     ecut=    25.00 Ry     beta= 0.70
     Davidson diagonalization with overlap
     ethr =  8.56E-03,  avg # of iterations =  2.0

     negative rho (up, down):  4.427E-04 0.000E+00

     total cpu time spent up to now is     4267.0 secs

     total energy              =    -427.12968389 Ry
     Harris-Foulkes estimate   =    -427.40091685 Ry
     estimated scf accuracy    <       0.42737825 Ry

     iteration #  3     ecut=    25.00 Ry     beta= 0.70
     Davidson diagonalization with overlap
     ethr =  8.22E-04,  avg # of iterations =  2.9

     negative rho (up, down):  5.264E-05 0.000E+00

     total cpu time spent up to now is     4271.7 secs

     total energy              =    -427.22859646 Ry
     Harris-Foulkes estimate   =    -427.26217246 Ry
     estimated scf accuracy    <       0.06707421 Ry

     iteration #  4     ecut=    25.00 Ry     beta= 0.70
     Davidson diagonalization with overlap
     ethr =  1.29E-04,  avg # of iterations =  2.2

     total cpu time spent up to now is     4276.1 secs

     total energy              =    -427.24049740 Ry
     Harris-Foulkes estimate   =    -427.24448152 Ry
     estimated scf accuracy    <       0.00696177 Ry

     iteration #  5     ecut=    25.00 Ry     beta= 0.70
     Davidson diagonalization with overlap
     ethr =  1.34E-05,  avg # of iterations =  3.0

     total cpu time spent up to now is     4281.1 secs

     total energy              =    -427.24227351 Ry
     Harris-Foulkes estimate   =    -427.24316068 Ry
     estimated scf accuracy    <       0.00167041 Ry

     iteration #  6     ecut=    25.00 Ry     beta= 0.70
     Davidson diagonalization with overlap
     ethr =  3.21E-06,  avg # of iterations =  2.5

     total cpu time spent up to now is     4285.6 secs

     total energy              =    -427.24267130 Ry
     Harris-Foulkes estimate   =    -427.24269388 Ry
     estimated scf accuracy    <       0.00004705 Ry

     iteration #  7     ecut=    25.00 Ry     beta= 0.70
     Davidson diagonalization with overlap
     ethr =  9.05E-08,  avg # of iterations =  2.5

     total cpu time spent up to now is     4290.2 secs

     total energy              =    -427.24268447 Ry
     Harris-Foulkes estimate   =    -427.24268558 Ry
     estimated scf accuracy    <       0.00000302 Ry

     iteration #  8     ecut=    25.00 Ry     beta= 0.70
     Davidson diagonalization with overlap
     ethr =  5.81E-09,  avg # of iterations =  2.8

     total cpu time spent up to now is     4294.8 secs

     total energy              =    -427.24268506 Ry
     Harris-Foulkes estimate   =    -427.24268521 Ry
     estimated scf accuracy    <       0.00000029 Ry

     iteration #  9     ecut=    25.00 Ry     beta= 0.70
     Davidson diagonalization with overlap
     ethr =  5.53E-10,  avg # of iterations =  2.9

     total cpu time spent up to now is     4299.7 secs

     total energy              =    -427.24268513 Ry
     Harris-Foulkes estimate   =    -427.24268513 Ry
     estimated scf accuracy    <       0.00000001 Ry

     iteration # 10     ecut=    25.00 Ry     beta= 0.70
     Davidson diagonalization with overlap
     ethr =  2.31E-11,  avg # of iterations =  2.8

     total cpu time spent up to now is     4304.2 secs

     total energy              =    -427.24268513 Ry
     Harris-Foulkes estimate   =    -427.24268513 Ry
     estimated scf accuracy    <          6.0E-10 Ry

     iteration # 11     ecut=    25.00 Ry     beta= 0.70
     Davidson diagonalization with overlap
     ethr =  1.16E-12,  avg # of iterations =  2.5

     total cpu time spent up to now is     4308.9 secs

     total energy              =    -427.24268513 Ry
     Harris-Foulkes estimate   =    -427.24268513 Ry
     estimated scf accuracy    <          2.7E-11 Ry

     iteration # 12     ecut=    25.00 Ry     beta= 0.70
     Davidson diagonalization with overlap
     ethr =  1.00E-13,  avg # of iterations =  2.0

     total cpu time spent up to now is     4312.8 secs

     End of self-consistent calculation

     Number of k-points >= 100: set verbosity='high' to print the bands.

     highest occupied level (ev):    28.5589

!    total energy              =    -427.24268513 Ry
     Harris-Foulkes estimate   =    -427.24268513 Ry
     estimated scf accuracy    <          6.9E-13 Ry

     The total energy is the sum of the following terms:

     one-electron contribution =      34.97699715 Ry
     hartree contribution      =      50.85352104 Ry
     xc contribution           =    -120.94281411 Ry
     ewald contribution        =    -392.13038922 Ry

     convergence has been achieved in  12 iterations

     Forces acting on atoms (cartesian axes, Ry/au):

     atom    1 type  1   force =     0.08931111    0.08931111    0.00000000
     atom    2 type  1   force =     0.01180248    0.01180248    0.00000000
     atom    3 type  2   force =     0.00924219   -0.08923166    0.00000000
     atom    4 type  2   force =    -0.08923166    0.00924219    0.00000000
     atom    5 type  2   force =    -0.07459211   -0.07459211    0.00000000
     atom    6 type  2   force =     0.05346800    0.05346800    0.00000000

     Total force =     0.221749     Total SCF correction =     0.000003


     Computing stress (Cartesian axis) and pressure

          total   stress  (Ry/bohr**3)                   (kbar)     P=********
  -0.09765639   0.00946416   0.00000000     -14365.75   1392.23      0.00
   0.00946416  -0.09765639   0.00000000       1392.23 -14365.75      0.00
   0.00000000   0.00000000  -0.08996497          0.00      0.00 -13234.30


     Writing output data file SnO2.save
 
     init_run     :      4.85s CPU      5.07s WALL (       2 calls)
     electrons    :   4023.79s CPU   4119.58s WALL (      45 calls)
     update_pot   :     22.57s CPU     22.66s WALL (      43 calls)
     forces       :     47.64s CPU     48.44s WALL (      45 calls)
     stress       :    107.43s CPU    112.86s WALL (      45 calls)

     Called by init_run:
     wfcinit      :      4.24s CPU      4.38s WALL (       2 calls)
     potinit      :      0.17s CPU      0.17s WALL (       2 calls)
     hinit0       :      0.42s CPU      0.50s WALL (       2 calls)

     Called by electrons:
     c_bands      :   3655.22s CPU   3736.12s WALL (     467 calls)
     sum_band     :    363.77s CPU    376.68s WALL (     467 calls)
     v_of_rho     :      4.02s CPU      4.10s WALL (     503 calls)
     mix_rho      :      0.86s CPU      0.96s WALL (     467 calls)

     Called by c_bands:
     init_us_2    :     48.26s CPU     59.96s WALL (  107730 calls)
     cegterg      :   3331.19s CPU   3408.26s WALL (   49035 calls)

     Called by sum_band:

     Called by *egterg:
     h_psi        :   2398.45s CPU   2490.28s WALL (  172713 calls)
     g_psi        :     22.83s CPU     23.67s WALL (  123468 calls)
     cdiaghg      :    411.00s CPU    404.36s WALL (  167043 calls)

     Called by h_psi:
     h_psi:pot    :   2388.34s CPU   2476.20s WALL (  172713 calls)
     h_psi:calbec :    209.63s CPU    202.14s WALL (  172713 calls)
     vloc_psi     :   2044.84s CPU   2067.05s WALL (  172713 calls)
     add_vuspsi   :    133.45s CPU    205.88s WALL (  172713 calls)

     General routines
     calbec       :    248.65s CPU    233.19s WALL (  196338 calls)
     fft          :      2.37s CPU      2.64s WALL (    6207 calls)
     ffts         :      0.18s CPU      0.19s WALL (     467 calls)
     fftw         :   2350.12s CPU   2236.44s WALL ( 8826538 calls)
 
     Parallel routines
     fft_scatt_xy :     29.92s CPU    167.52s WALL ( 8833212 calls)
     fft_scatt_yz :   1983.20s CPU    472.48s WALL ( 8833212 calls)
 
     PWSCF        :     1h10m CPU        1h11m WALL

 
   This run was terminated on:  13:31:37   8Apr2018            

=------------------------------------------------------------------------------=
   JOB DONE.
=------------------------------------------------------------------------------=
