
     Program PWSCF v.6.2.2 starts on  9Apr2018 at  0: 1:48 

     This program is part of the open-source Quantum ESPRESSO suite
     for quantum simulation of materials; please cite
         "P. Giannozzi et al., J. Phys.:Condens. Matter 21 395502 (2009);
         "P. Giannozzi et al., J. Phys.:Condens. Matter 29 465901 (2017);
          URL http://www.quantum-espresso.org", 
     in publications or presentations arising from this work. More details at
     http://www.quantum-espresso.org/quote

     Parallel version (MPI), running on     2 processors

     MPI processes distributed on     1 nodes
     R & G space division:  proc/nbgrp/npool/nimage =       2
     Reading input from Conv_acell-kp.in

     Current dimensions of program PWSCF are:
     Max number of different atomic species (ntypx) = 10
     Max number of k-points (npk) =  40000
     Max angular momentum in pseudopotentials (lmaxx) =  3

     Subspace diagonalization in iterative solution of the eigenvalue problem:
     a serial algorithm will be used

 
     Parallelization info
     --------------------
     sticks:   dense  smooth     PW     G-vecs:    dense   smooth      PW
     Min         332     332    110                 4313     4313     791
     Max         333     333    111                 4314     4314     792
     Sum         665     665    221                 8627     8627    1583
 


     bravais-lattice index     =            6
     lattice parameter (alat)  =       9.1100  a.u.
     unit-cell volume          =     506.5589 (a.u.)^3
     number of atoms/cell      =            6
     number of atomic types    =            2
     number of electrons       =        52.00
     number of Kohn-Sham states=           26
     kinetic-energy cutoff     =      25.0000  Ry
     charge density cutoff     =     100.0000  Ry
     convergence threshold     =      1.0E-12
     mixing beta               =       0.7000
     number of iterations used =            8  plain     mixing
     Exchange-correlation      = PBE ( 1  4  3  4 0 0)
     nstep                     =           50


     celldm(1)=   9.110000  celldm(2)=   0.000000  celldm(3)=   0.670000
     celldm(4)=   0.000000  celldm(5)=   0.000000  celldm(6)=   0.000000

     crystal axes: (cart. coord. in units of alat)
               a(1) = (   1.000000   0.000000   0.000000 )  
               a(2) = (   0.000000   1.000000   0.000000 )  
               a(3) = (   0.000000   0.000000   0.670000 )  

     reciprocal axes: (cart. coord. in units 2 pi/alat)
               b(1) = (  1.000000  0.000000  0.000000 )  
               b(2) = (  0.000000  1.000000  0.000000 )  
               b(3) = (  0.000000  0.000000  1.492537 )  


     PseudoPot. # 1 for Sn read from file:
     ../../Pseudo_potentials/Sn_PBE.upf
     MD5 check sum: 78e6386ae56e929f0568ae8bf606a80c
     Pseudo is Norm-conserving + core correction, Zval = 14.0
     Generated using ONCVPSP code by D. R. Hamann
     Using radial grid of 1628 points,  6 beta functions with: 
                l(1) =   0
                l(2) =   0
                l(3) =   1
                l(4) =   1
                l(5) =   2
                l(6) =   2

     PseudoPot. # 2 for O  read from file:
     ../../Pseudo_potentials/O_PBE.upf
     MD5 check sum: 3e3f909f7470e8921608ab6b1f57bbae
     Pseudo is Norm-conserving + core correction, Zval =  6.0
     Generated using ONCVPSP code by D. R. Hamann
     Using radial grid of  936 points,  5 beta functions with: 
                l(1) =   0
                l(2) =   0
                l(3) =   1
                l(4) =   1
                l(5) =   2

     atomic species   valence    mass     pseudopotential
        Sn            14.00   118.71000     Sn( 1.00)
        O              6.00    15.99900     O ( 1.00)

      4 Sym. Ops. (no inversion) found



   Cartesian axes

     site n.     atom                  positions (alat units)
         1           Sn  tau(   1) = (   0.0000000   0.0000000   0.0000000  )
         2           Sn  tau(   2) = (   0.5000000   0.5000000   0.3350000  )
         3           O   tau(   3) = (   0.8060000   0.1930000   0.3350000  )
         4           O   tau(   4) = (   0.1930000   0.8060000   0.3350000  )
         5           O   tau(   5) = (   0.3060000   0.3060000   0.0000000  )
         6           O   tau(   6) = (   0.6930000   0.6930000   0.0000000  )

     number of k points=   657

     Number of k-points >= 100: set verbosity='high' to print them.

     Dense  grid:     8627 G-vectors     FFT dimensions: (  30,  30,  20)

     Estimated max dynamical RAM per process >     149.54 MB

     Estimated total dynamical RAM >     299.08 MB

     Check: negative/imaginary core charge=   -0.002394    0.000000

     Initial potential from superposition of free atoms
     Check: negative starting charge=   -0.009566

     starting charge   51.99690, renormalised to   52.00000

     negative rho (up, down):  9.566E-03 0.000E+00
     Starting wfc are   34 randomized atomic wfcs

     total cpu time spent up to now is       24.3 secs

     Self-consistent Calculation

     iteration #  1     ecut=    25.00 Ry     beta= 0.70
     Davidson diagonalization with overlap
     ethr =  1.00E-02,  avg # of iterations =  2.0

     negative rho (up, down):  2.854E-03 0.000E+00

     total cpu time spent up to now is       78.2 secs

     total energy              =    -429.62916677 Ry
     Harris-Foulkes estimate   =    -432.65874819 Ry
     estimated scf accuracy    <       4.17077111 Ry

     iteration #  2     ecut=    25.00 Ry     beta= 0.70
     Davidson diagonalization with overlap
     ethr =  8.02E-03,  avg # of iterations =  2.0

     negative rho (up, down):  8.836E-04 0.000E+00

     total cpu time spent up to now is      126.6 secs

     total energy              =    -430.40409305 Ry
     Harris-Foulkes estimate   =    -430.54543281 Ry
     estimated scf accuracy    <       0.25021002 Ry

     iteration #  3     ecut=    25.00 Ry     beta= 0.70
     Davidson diagonalization with overlap
     ethr =  4.81E-04,  avg # of iterations =  2.8

     negative rho (up, down):  1.606E-04 0.000E+00

     total cpu time spent up to now is      178.9 secs

     total energy              =    -430.45013648 Ry
     Harris-Foulkes estimate   =    -430.46406942 Ry
     estimated scf accuracy    <       0.02984775 Ry

     iteration #  4     ecut=    25.00 Ry     beta= 0.70
     Davidson diagonalization with overlap
     ethr =  5.74E-05,  avg # of iterations =  2.9

     total cpu time spent up to now is      231.1 secs

     total energy              =    -430.45558158 Ry
     Harris-Foulkes estimate   =    -430.45742656 Ry
     estimated scf accuracy    <       0.00360229 Ry

     iteration #  5     ecut=    25.00 Ry     beta= 0.70
     Davidson diagonalization with overlap
     ethr =  6.93E-06,  avg # of iterations =  3.0

     total cpu time spent up to now is      284.6 secs

     total energy              =    -430.45644846 Ry
     Harris-Foulkes estimate   =    -430.45653600 Ry
     estimated scf accuracy    <       0.00017810 Ry

     iteration #  6     ecut=    25.00 Ry     beta= 0.70
     Davidson diagonalization with overlap
     ethr =  3.43E-07,  avg # of iterations =  3.1

     total cpu time spent up to now is      338.5 secs

     total energy              =    -430.45654093 Ry
     Harris-Foulkes estimate   =    -430.45654518 Ry
     estimated scf accuracy    <       0.00001032 Ry

     iteration #  7     ecut=    25.00 Ry     beta= 0.70
     Davidson diagonalization with overlap
     ethr =  1.98E-08,  avg # of iterations =  3.1

     total cpu time spent up to now is      389.3 secs

     total energy              =    -430.45654191 Ry
     Harris-Foulkes estimate   =    -430.45654303 Ry
     estimated scf accuracy    <       0.00000297 Ry

     iteration #  8     ecut=    25.00 Ry     beta= 0.70
     Davidson diagonalization with overlap
     ethr =  5.72E-09,  avg # of iterations =  2.7

     total cpu time spent up to now is      436.9 secs

     total energy              =    -430.45654223 Ry
     Harris-Foulkes estimate   =    -430.45654233 Ry
     estimated scf accuracy    <       0.00000018 Ry

     iteration #  9     ecut=    25.00 Ry     beta= 0.70
     Davidson diagonalization with overlap
     ethr =  3.49E-10,  avg # of iterations =  3.1

     total cpu time spent up to now is      497.2 secs

     total energy              =    -430.45654229 Ry
     Harris-Foulkes estimate   =    -430.45654231 Ry
     estimated scf accuracy    <       0.00000004 Ry

     iteration # 10     ecut=    25.00 Ry     beta= 0.70
     Davidson diagonalization with overlap
     ethr =  7.91E-11,  avg # of iterations =  2.6

     total cpu time spent up to now is      546.6 secs

     total energy              =    -430.45654229 Ry
     Harris-Foulkes estimate   =    -430.45654230 Ry
     estimated scf accuracy    <          3.5E-09 Ry

     iteration # 11     ecut=    25.00 Ry     beta= 0.70
     Davidson diagonalization with overlap
     ethr =  6.70E-12,  avg # of iterations =  3.1

     total cpu time spent up to now is      601.0 secs

     total energy              =    -430.45654229 Ry
     Harris-Foulkes estimate   =    -430.45654229 Ry
     estimated scf accuracy    <          1.2E-10 Ry

     iteration # 12     ecut=    25.00 Ry     beta= 0.70
     Davidson diagonalization with overlap
     ethr =  2.24E-13,  avg # of iterations =  3.0

     total cpu time spent up to now is      652.5 secs

     total energy              =    -430.45654229 Ry
     Harris-Foulkes estimate   =    -430.45654229 Ry
     estimated scf accuracy    <          6.3E-12 Ry

     iteration # 13     ecut=    25.00 Ry     beta= 0.70
     Davidson diagonalization with overlap
     ethr =  1.00E-13,  avg # of iterations =  1.9

     total cpu time spent up to now is      692.1 secs

     End of self-consistent calculation

     Number of k-points >= 100: set verbosity='high' to print the bands.

     highest occupied level (ev):     9.8142

!    total energy              =    -430.45654229 Ry
     Harris-Foulkes estimate   =    -430.45654229 Ry
     estimated scf accuracy    <          3.2E-13 Ry

     The total energy is the sum of the following terms:

     one-electron contribution =     -96.65096575 Ry
     hartree contribution      =      85.51304361 Ry
     xc contribution           =    -116.83728182 Ry
     ewald contribution        =    -302.48133834 Ry

     convergence has been achieved in  13 iterations

     Forces acting on atoms (cartesian axes, Ry/au):

     atom    1 type  1   force =     0.00043318    0.00043318    0.00000000
     atom    2 type  1   force =    -0.00003978   -0.00003978    0.00000000
     atom    3 type  2   force =     0.01412077   -0.01363058    0.00000000
     atom    4 type  2   force =    -0.01363058    0.01412077    0.00000000
     atom    5 type  2   force =     0.01344902    0.01344902    0.00000000
     atom    6 type  2   force =    -0.01433261   -0.01433261    0.00000000

     Total force =     0.039286     Total SCF correction =     0.000002


     Computing stress (Cartesian axis) and pressure

          total   stress  (Ry/bohr**3)                   (kbar)     P=-9550.96
  -0.06527754   0.00000027   0.00000000      -9602.66      0.04      0.00
   0.00000027  -0.06527754   0.00000000          0.04  -9602.66      0.00
   0.00000000   0.00000000  -0.06422318          0.00      0.00  -9447.55


     BFGS Geometry Optimization

     number of scf cycles    =   1
     number of bfgs steps    =   0

     enthalpy new            =    -430.4565422949 Ry

     new trust radius        =       0.5000000000 bohr
     new conv_thr            =            1.0E-12 Ry

     new unit-cell volume =    356.53131 a.u.^3 (    52.83249 Ang^3 )
     density =      9.47358 g/cm^3

CELL_PARAMETERS (alat=  9.11000000)
   0.888922769   0.000000000   0.000000000
   0.000000000   0.888922769   0.000000000
   0.000000000   0.000000000   0.596780311

ATOMIC_POSITIONS (crystal)
Sn       0.000003236   0.000003236   0.000000000
Sn       0.499999703   0.499999703   0.500000000
O        0.806105502   0.192898160   0.500000000
O        0.192898160   0.806105502   0.500000000
O        0.306100483   0.306100483   0.000000000
O        0.692892915   0.692892915   0.000000000



     Writing output data file SnO2.save
     Check: negative starting charge=   -0.009566
     NEW-OLD atomic charge density approx. for the potential

     Check: negative/imaginary core charge=   -0.001408    0.000000
     Check: negative starting charge=   -0.001844

     negative rho (up, down):  1.259E+00 0.000E+00
     extrapolated charge   30.11982, renormalised to   52.00000

     total cpu time spent up to now is      710.1 secs

     Self-consistent Calculation

     iteration #  1     ecut=    25.00 Ry     beta= 0.70
     Davidson diagonalization with overlap
     ethr =  1.00E-06,  avg # of iterations = 12.3

     total cpu time spent up to now is      875.0 secs

     total energy              =    -402.05674496 Ry
     Harris-Foulkes estimate   =    -475.65843825 Ry
     estimated scf accuracy    <      58.32380731 Ry

     iteration #  2     ecut=    25.00 Ry     beta= 0.70
     Davidson diagonalization with overlap
     ethr =  1.00E-02,  avg # of iterations =  5.4

     total cpu time spent up to now is      959.7 secs

     total energy              =    -436.52462201 Ry
     Harris-Foulkes estimate   =    -447.73376119 Ry
     estimated scf accuracy    <      17.35331773 Ry

     iteration #  3     ecut=    25.00 Ry     beta= 0.70
     Davidson diagonalization with overlap
     ethr =  1.00E-02,  avg # of iterations =  2.6

     total cpu time spent up to now is     1016.5 secs

     total energy              =    -439.52866883 Ry
     Harris-Foulkes estimate   =    -439.89994099 Ry
     estimated scf accuracy    <       0.69716277 Ry

     iteration #  4     ecut=    25.00 Ry     beta= 0.70
     Davidson diagonalization with overlap
     ethr =  1.34E-03,  avg # of iterations =  1.9

     total cpu time spent up to now is     1057.6 secs

     total energy              =    -439.47217021 Ry
     Harris-Foulkes estimate   =    -439.57577231 Ry
     estimated scf accuracy    <       0.16569391 Ry

     iteration #  5     ecut=    25.00 Ry     beta= 0.70
     Davidson diagonalization with overlap
     ethr =  3.19E-04,  avg # of iterations =  2.0

     negative rho (up, down):  1.169E-04 0.000E+00

     total cpu time spent up to now is     1103.7 secs

     total energy              =    -439.47111768 Ry
     Harris-Foulkes estimate   =    -439.48933628 Ry
     estimated scf accuracy    <       0.02436910 Ry

     iteration #  6     ecut=    25.00 Ry     beta= 0.70
     Davidson diagonalization with overlap
     ethr =  4.69E-05,  avg # of iterations =  2.0

     negative rho (up, down):  3.787E-04 0.000E+00

     total cpu time spent up to now is     1156.7 secs

     total energy              =    -439.47568729 Ry
     Harris-Foulkes estimate   =    -439.47647828 Ry
     estimated scf accuracy    <       0.00148442 Ry

     iteration #  7     ecut=    25.00 Ry     beta= 0.70
     Davidson diagonalization with overlap
     ethr =  2.85E-06,  avg # of iterations =  2.1

     negative rho (up, down):  5.216E-05 0.000E+00

     total cpu time spent up to now is     1207.8 secs

     total energy              =    -439.47671043 Ry
     Harris-Foulkes estimate   =    -439.47676215 Ry
     estimated scf accuracy    <       0.00008736 Ry

     iteration #  8     ecut=    25.00 Ry     beta= 0.70
     Davidson diagonalization with overlap
     ethr =  1.68E-07,  avg # of iterations =  2.0

     total cpu time spent up to now is     1258.4 secs

     total energy              =    -439.47671958 Ry
     Harris-Foulkes estimate   =    -439.47672377 Ry
     estimated scf accuracy    <       0.00000721 Ry

     iteration #  9     ecut=    25.00 Ry     beta= 0.70
     Davidson diagonalization with overlap
     ethr =  1.39E-08,  avg # of iterations =  2.6

     total cpu time spent up to now is     1312.4 secs

     total energy              =    -439.47672058 Ry
     Harris-Foulkes estimate   =    -439.47672091 Ry
     estimated scf accuracy    <       0.00000057 Ry

     iteration # 10     ecut=    25.00 Ry     beta= 0.70
     Davidson diagonalization with overlap
     ethr =  1.10E-09,  avg # of iterations =  2.7

     total cpu time spent up to now is     1362.8 secs

     total energy              =    -439.47672069 Ry
     Harris-Foulkes estimate   =    -439.47672072 Ry
     estimated scf accuracy    <       0.00000005 Ry

     iteration # 11     ecut=    25.00 Ry     beta= 0.70
     Davidson diagonalization with overlap
     ethr =  1.00E-10,  avg # of iterations =  2.4

     total cpu time spent up to now is     1417.3 secs

     total energy              =    -439.47672070 Ry
     Harris-Foulkes estimate   =    -439.47672070 Ry
     estimated scf accuracy    <          1.0E-09 Ry

     iteration # 12     ecut=    25.00 Ry     beta= 0.70
     Davidson diagonalization with overlap
     ethr =  2.00E-12,  avg # of iterations =  2.9

     total cpu time spent up to now is     1472.4 secs

     total energy              =    -439.47672070 Ry
     Harris-Foulkes estimate   =    -439.47672070 Ry
     estimated scf accuracy    <          4.3E-11 Ry

     iteration # 13     ecut=    25.00 Ry     beta= 0.70
     Davidson diagonalization with overlap
     ethr =  1.00E-13,  avg # of iterations =  2.2

     total cpu time spent up to now is     1522.2 secs

     total energy              =    -439.47672070 Ry
     Harris-Foulkes estimate   =    -439.47672070 Ry
     estimated scf accuracy    <          3.1E-12 Ry

     iteration # 14     ecut=    25.00 Ry     beta= 0.70
     Davidson diagonalization with overlap
     ethr =  1.00E-13,  avg # of iterations =  1.0

     total cpu time spent up to now is     1559.8 secs

     End of self-consistent calculation

     Number of k-points >= 100: set verbosity='high' to print the bands.

     highest occupied level (ev):    16.0279

!    total energy              =    -439.47672070 Ry
     Harris-Foulkes estimate   =    -439.47672070 Ry
     estimated scf accuracy    <          1.8E-13 Ry

     The total energy is the sum of the following terms:

     one-electron contribution =     -56.68041349 Ry
     hartree contribution      =      78.93352150 Ry
     xc contribution           =    -121.62085935 Ry
     ewald contribution        =    -340.10896936 Ry

     convergence has been achieved in  14 iterations

     Forces acting on atoms (cartesian axes, Ry/au):

     atom    1 type  1   force =    -0.00332354   -0.00332354    0.00000000
     atom    2 type  1   force =    -0.00270199   -0.00270199    0.00000000
     atom    3 type  2   force =    -0.05008675    0.04926622    0.00000000
     atom    4 type  2   force =     0.04926622   -0.05008675    0.00000000
     atom    5 type  2   force =    -0.04624973   -0.04624973    0.00000000
     atom    6 type  2   force =     0.05309579    0.05309579    0.00000000

     Total force =     0.140800     Total SCF correction =     0.000002


     Computing stress (Cartesian axis) and pressure

          total   stress  (Ry/bohr**3)                   (kbar)     P=-7230.74
  -0.05021708   0.00000034   0.00000000      -7387.19      0.05      0.00
   0.00000034  -0.05021708   0.00000000          0.05  -7387.19      0.00
   0.00000000   0.00000000  -0.04702649          0.00      0.00  -6917.83


     number of scf cycles    =   2
     number of bfgs steps    =   1

     enthalpy old            =    -430.4565422949 Ry
     enthalpy new            =    -439.4767206993 Ry

     CASE: enthalpy_new < enthalpy_old

     new trust radius        =       0.7078334877 bohr
     new conv_thr            =            1.0E-12 Ry

     new unit-cell volume =    217.68222 a.u.^3 (    32.25718 Ang^3 )
     density =     15.51633 g/cm^3

CELL_PARAMETERS (alat=  9.11000000)
   0.722306921   0.000000000   0.000000000
   0.000000000   0.722306921   0.000000000
   0.000000000   0.000000000   0.551854092

ATOMIC_POSITIONS (crystal)
Sn      -0.000690640  -0.000690640   0.000000000
Sn       0.499483033   0.499483033   0.500000000
O        0.794729569   0.204056398   0.500000000
O        0.204056398   0.794729569   0.500000000
O        0.295546405   0.295546405   0.000000000
O        0.704875236   0.704875236   0.000000000



     Writing output data file SnO2.save
     Check: negative starting charge=   -0.001844
     NEW-OLD atomic charge density approx. for the potential

     Check: negative/imaginary core charge=   -0.000515    0.000000

     negative rho (up, down):  2.448E+00 0.000E+00
     extrapolated charge   18.83366, renormalised to   52.00000

     total cpu time spent up to now is     1577.9 secs

     Self-consistent Calculation

     iteration #  1     ecut=    25.00 Ry     beta= 0.70
     Davidson diagonalization with overlap
     ethr =  1.00E-06,  avg # of iterations = 10.9

     total cpu time spent up to now is     1744.7 secs

     total energy              =    -392.73779140 Ry
     Harris-Foulkes estimate   =    -483.43306348 Ry
     estimated scf accuracy    <     130.53295310 Ry

     iteration #  2     ecut=    25.00 Ry     beta= 0.70
     Davidson diagonalization with overlap
     ethr =  1.00E-02,  avg # of iterations =  5.0

     total cpu time spent up to now is     1829.3 secs

     total energy              =    -437.81637082 Ry
     Harris-Foulkes estimate   =    -448.31917083 Ry
     estimated scf accuracy    <      15.23371696 Ry

     iteration #  3     ecut=    25.00 Ry     beta= 0.70
     Davidson diagonalization with overlap
     ethr =  1.00E-02,  avg # of iterations =  2.9

     total cpu time spent up to now is     1888.0 secs

     total energy              =    -441.19960461 Ry
     Harris-Foulkes estimate   =    -441.36451408 Ry
     estimated scf accuracy    <       0.31689327 Ry

     iteration #  4     ecut=    25.00 Ry     beta= 0.70
     Davidson diagonalization with overlap
     ethr =  6.09E-04,  avg # of iterations =  2.0

     total cpu time spent up to now is     1935.2 secs

     total energy              =    -441.21296720 Ry
     Harris-Foulkes estimate   =    -441.23353120 Ry
     estimated scf accuracy    <       0.03604463 Ry

     iteration #  5     ecut=    25.00 Ry     beta= 0.70
     Davidson diagonalization with overlap
     ethr =  6.93E-05,  avg # of iterations =  2.0

     total cpu time spent up to now is     1978.0 secs

     total energy              =    -441.21495472 Ry
     Harris-Foulkes estimate   =    -441.21577361 Ry
     estimated scf accuracy    <       0.00154946 Ry

     iteration #  6     ecut=    25.00 Ry     beta= 0.70
     Davidson diagonalization with overlap
     ethr =  2.98E-06,  avg # of iterations =  2.0

     total cpu time spent up to now is     2026.8 secs

     total energy              =    -441.21515863 Ry
     Harris-Foulkes estimate   =    -441.21519598 Ry
     estimated scf accuracy    <       0.00006680 Ry

     iteration #  7     ecut=    25.00 Ry     beta= 0.70
     Davidson diagonalization with overlap
     ethr =  1.28E-07,  avg # of iterations =  3.0

     total cpu time spent up to now is     2083.2 secs

     total energy              =    -441.21517489 Ry
     Harris-Foulkes estimate   =    -441.21517684 Ry
     estimated scf accuracy    <       0.00000448 Ry

     iteration #  8     ecut=    25.00 Ry     beta= 0.70
     Davidson diagonalization with overlap
     ethr =  8.62E-09,  avg # of iterations =  2.2

     total cpu time spent up to now is     2131.7 secs

     total energy              =    -441.21517555 Ry
     Harris-Foulkes estimate   =    -441.21517573 Ry
     estimated scf accuracy    <       0.00000032 Ry

     iteration #  9     ecut=    25.00 Ry     beta= 0.70
     Davidson diagonalization with overlap
     ethr =  6.17E-10,  avg # of iterations =  2.3

     total cpu time spent up to now is     2181.9 secs

     total energy              =    -441.21517560 Ry
     Harris-Foulkes estimate   =    -441.21517562 Ry
     estimated scf accuracy    <       0.00000003 Ry

     iteration # 10     ecut=    25.00 Ry     beta= 0.70
     Davidson diagonalization with overlap
     ethr =  5.03E-11,  avg # of iterations =  2.1

     total cpu time spent up to now is     2234.4 secs

     total energy              =    -441.21517561 Ry
     Harris-Foulkes estimate   =    -441.21517561 Ry
     estimated scf accuracy    <          6.0E-10 Ry

     iteration # 11     ecut=    25.00 Ry     beta= 0.70
     Davidson diagonalization with overlap
     ethr =  1.15E-12,  avg # of iterations =  2.2

     total cpu time spent up to now is     2289.0 secs

     total energy              =    -441.21517561 Ry
     Harris-Foulkes estimate   =    -441.21517561 Ry
     estimated scf accuracy    <          4.3E-11 Ry

     iteration # 12     ecut=    25.00 Ry     beta= 0.70
     Davidson diagonalization with overlap
     ethr =  1.00E-13,  avg # of iterations =  2.0

     total cpu time spent up to now is     2339.8 secs

     total energy              =    -441.21517561 Ry
     Harris-Foulkes estimate   =    -441.21517561 Ry
     estimated scf accuracy    <          3.1E-12 Ry

     iteration # 13     ecut=    25.00 Ry     beta= 0.70
     Davidson diagonalization with overlap
     ethr =  1.00E-13,  avg # of iterations =  1.0

     total cpu time spent up to now is     2377.3 secs

     End of self-consistent calculation

     Number of k-points >= 100: set verbosity='high' to print the bands.

     highest occupied level (ev):    31.4514

!    total energy              =    -441.21517561 Ry
     Harris-Foulkes estimate   =    -441.21517561 Ry
     estimated scf accuracy    <          4.7E-14 Ry

     The total energy is the sum of the following terms:

     one-electron contribution =      29.80078540 Ry
     hartree contribution      =      61.37645816 Ry
     xc contribution           =    -127.50406671 Ry
     ewald contribution        =    -404.88835246 Ry

     convergence has been achieved in  13 iterations

     Forces acting on atoms (cartesian axes, Ry/au):

     atom    1 type  1   force =     0.05533997    0.05533997    0.00000000
     atom    2 type  1   force =     0.00844117    0.00844117    0.00000000
     atom    3 type  2   force =     0.65160207   -0.64748249    0.00000000
     atom    4 type  2   force =    -0.64748249    0.65160207    0.00000000
     atom    5 type  2   force =     0.61592461    0.61592461    0.00000000
     atom    6 type  2   force =    -0.68382534   -0.68382534    0.00000000

     Total force =     1.840616     Total SCF correction =     0.000001


     Computing stress (Cartesian axis) and pressure

          total   stress  (Ry/bohr**3)                   (kbar)     P= 6171.56
   0.05467594   0.00000382   0.00000000       8043.11      0.56      0.00
   0.00000382   0.05467594   0.00000000          0.56   8043.11      0.00
   0.00000000   0.00000000   0.01650846          0.00      0.00   2428.48


     number of scf cycles    =   3
     number of bfgs steps    =   2

     enthalpy old            =    -439.4767206993 Ry
     enthalpy new            =    -441.2151756084 Ry

     CASE: enthalpy_new < enthalpy_old

     new trust radius        =       0.6982199732 bohr
     new conv_thr            =            1.0E-12 Ry

     new unit-cell volume =    232.05526 a.u.^3 (    34.38704 Ang^3 )
     density =     14.55528 g/cm^3

CELL_PARAMETERS (alat=  9.11000000)
   0.853562883   0.000000000   0.000000000
   0.000000000   0.853562883   0.000000000
   0.000000000   0.000000000   0.421274572

ATOMIC_POSITIONS (crystal)
Sn       0.001752113   0.001752113   0.000000000
Sn       0.499826684   0.499826684   0.500000000
O        0.823476081   0.175490715   0.500000000
O        0.175490715   0.823476081   0.500000000
O        0.322734038   0.322734038   0.000000000
O        0.674720370   0.674720370   0.000000000



     Writing output data file SnO2.save
     NEW-OLD atomic charge density approx. for the potential

     Check: negative/imaginary core charge=   -0.000777    0.000000
     extrapolated charge   55.22059, renormalised to   52.00000

     total cpu time spent up to now is     2395.6 secs

     Self-consistent Calculation

     iteration #  1     ecut=    25.00 Ry     beta= 0.70
     Davidson diagonalization with overlap
     ethr =  1.00E-06,  avg # of iterations =  8.4

     total cpu time spent up to now is     2538.2 secs

     total energy              =    -437.42925780 Ry
     Harris-Foulkes estimate   =    -432.93096108 Ry
     estimated scf accuracy    <       0.46489526 Ry

     iteration #  2     ecut=    25.00 Ry     beta= 0.70
     Davidson diagonalization with overlap
     ethr =  8.94E-04,  avg # of iterations =  2.8

     total cpu time spent up to now is     2595.9 secs

     total energy              =    -437.68560702 Ry
     Harris-Foulkes estimate   =    -437.81614898 Ry
     estimated scf accuracy    <       0.23945408 Ry

     iteration #  3     ecut=    25.00 Ry     beta= 0.70
     Davidson diagonalization with overlap
     ethr =  4.60E-04,  avg # of iterations =  2.0

     total cpu time spent up to now is     2643.3 secs

     total energy              =    -437.70733973 Ry
     Harris-Foulkes estimate   =    -437.71399555 Ry
     estimated scf accuracy    <       0.01402175 Ry

     iteration #  4     ecut=    25.00 Ry     beta= 0.70
     Davidson diagonalization with overlap
     ethr =  2.70E-05,  avg # of iterations =  2.1

     total cpu time spent up to now is     2696.5 secs

     total energy              =    -437.70974637 Ry
     Harris-Foulkes estimate   =    -437.70975150 Ry
     estimated scf accuracy    <       0.00022556 Ry

     iteration #  5     ecut=    25.00 Ry     beta= 0.70
     Davidson diagonalization with overlap
     ethr =  4.34E-07,  avg # of iterations =  2.3

     total cpu time spent up to now is     2747.5 secs

     total energy              =    -437.70977827 Ry
     Harris-Foulkes estimate   =    -437.70980249 Ry
     estimated scf accuracy    <       0.00004166 Ry

     iteration #  6     ecut=    25.00 Ry     beta= 0.70
     Davidson diagonalization with overlap
     ethr =  8.01E-08,  avg # of iterations =  2.0

     total cpu time spent up to now is     2797.7 secs

     total energy              =    -437.70978563 Ry
     Harris-Foulkes estimate   =    -437.70978622 Ry
     estimated scf accuracy    <       0.00000103 Ry

     iteration #  7     ecut=    25.00 Ry     beta= 0.70
     Davidson diagonalization with overlap
     ethr =  1.97E-09,  avg # of iterations =  2.1

     total cpu time spent up to now is     2851.9 secs

     total energy              =    -437.70978592 Ry
     Harris-Foulkes estimate   =    -437.70978594 Ry
     estimated scf accuracy    <       0.00000005 Ry

     iteration #  8     ecut=    25.00 Ry     beta= 0.70
     Davidson diagonalization with overlap
     ethr =  9.53E-11,  avg # of iterations =  2.1

     total cpu time spent up to now is     2905.7 secs

     total energy              =    -437.70978593 Ry
     Harris-Foulkes estimate   =    -437.70978593 Ry
     estimated scf accuracy    <       0.00000001 Ry

     iteration #  9     ecut=    25.00 Ry     beta= 0.70
     Davidson diagonalization with overlap
     ethr =  1.98E-11,  avg # of iterations =  2.1

     total cpu time spent up to now is     2955.5 secs

     total energy              =    -437.70978593 Ry
     Harris-Foulkes estimate   =    -437.70978593 Ry
     estimated scf accuracy    <          1.0E-09 Ry

     iteration # 10     ecut=    25.00 Ry     beta= 0.70
     Davidson diagonalization with overlap
     ethr =  1.96E-12,  avg # of iterations =  2.0

     total cpu time spent up to now is     3007.2 secs

     total energy              =    -437.70978593 Ry
     Harris-Foulkes estimate   =    -437.70978593 Ry
     estimated scf accuracy    <          4.7E-11 Ry

     iteration # 11     ecut=    25.00 Ry     beta= 0.70
     Davidson diagonalization with overlap
     ethr =  1.00E-13,  avg # of iterations =  2.0

     total cpu time spent up to now is     3060.9 secs

     End of self-consistent calculation

     Number of k-points >= 100: set verbosity='high' to print the bands.

     highest occupied level (ev):    30.1871

!    total energy              =    -437.70978593 Ry
     Harris-Foulkes estimate   =    -437.70978593 Ry
     estimated scf accuracy    <          9.0E-13 Ry

     The total energy is the sum of the following terms:

     one-electron contribution =     -35.24512115 Ry
     hartree contribution      =      88.65705236 Ry
     xc contribution           =    -127.69014535 Ry
     ewald contribution        =    -363.43157178 Ry

     convergence has been achieved in  11 iterations

     Forces acting on atoms (cartesian axes, Ry/au):

     atom    1 type  1   force =     0.02816117    0.02816117    0.00000000
     atom    2 type  1   force =    -0.06575462   -0.06575462    0.00000000
     atom    3 type  2   force =    -1.81854909    1.76637263    0.00000000
     atom    4 type  2   force =     1.76637263   -1.81854909    0.00000000
     atom    5 type  2   force =    -1.74865848   -1.74865848    0.00000000
     atom    6 type  2   force =     1.83842840    1.83842840    0.00000000

     Total force =     5.073448     Total SCF correction =     0.000003


     Computing stress (Cartesian axis) and pressure

          total   stress  (Ry/bohr**3)                   (kbar)     P= 5858.98
  -0.00015850   0.00002593   0.00000000        -23.32      3.81      0.00
   0.00002593  -0.00015850   0.00000000          3.81    -23.32      0.00
   0.00000000   0.00000000   0.11980272          0.00      0.00  17623.59


     number of scf cycles    =   4
     number of bfgs steps    =   3

     enthalpy old            =    -441.2151756084 Ry
     enthalpy new            =    -437.7097859290 Ry

     CASE: enthalpy_new > enthalpy_old

     new trust radius        =       0.2643511100 bohr
     new conv_thr            =            1.0E-12 Ry

     new unit-cell volume =    224.46885 a.u.^3 (    33.26285 Ang^3 )
     density =     15.04721 g/cm^3

CELL_PARAMETERS (alat=  9.11000000)
   0.759049079   0.000000000   0.000000000
   0.000000000   0.759049079   0.000000000
   0.000000000   0.000000000   0.515301289

ATOMIC_POSITIONS (crystal)
Sn      -0.000006846  -0.000006846   0.000000000
Sn       0.499579230   0.499579230   0.500000000
O        0.802776509   0.196060077   0.500000000
O        0.196060077   0.802776509   0.500000000
O        0.303156972   0.303156972   0.000000000
O        0.696434059   0.696434059   0.000000000



     Writing output data file SnO2.save
     NEW-OLD atomic charge density approx. for the potential

     Check: negative/imaginary core charge=   -0.000501    0.000000
     extrapolated charge   50.24265, renormalised to   52.00000

     total cpu time spent up to now is     3079.2 secs

     Self-consistent Calculation

     iteration #  1     ecut=    25.00 Ry     beta= 0.70
     Davidson diagonalization with overlap
     ethr =  1.00E-06,  avg # of iterations =  7.0

     total cpu time spent up to now is     3210.5 secs

     total energy              =    -441.69193019 Ry
     Harris-Foulkes estimate   =    -443.06825840 Ry
     estimated scf accuracy    <       0.24130073 Ry

     iteration #  2     ecut=    25.00 Ry     beta= 0.70
     Davidson diagonalization with overlap
     ethr =  4.64E-04,  avg # of iterations =  2.1

     total cpu time spent up to now is     3265.2 secs

     total energy              =    -441.81332423 Ry
     Harris-Foulkes estimate   =    -441.83963391 Ry
     estimated scf accuracy    <       0.05068384 Ry

     iteration #  3     ecut=    25.00 Ry     beta= 0.70
     Davidson diagonalization with overlap
     ethr =  9.75E-05,  avg # of iterations =  2.0

     total cpu time spent up to now is     3314.7 secs

     total energy              =    -441.81873650 Ry
     Harris-Foulkes estimate   =    -441.81940396 Ry
     estimated scf accuracy    <       0.00235025 Ry

     iteration #  4     ecut=    25.00 Ry     beta= 0.70
     Davidson diagonalization with overlap
     ethr =  4.52E-06,  avg # of iterations =  2.0

     total cpu time spent up to now is     3368.5 secs

     total energy              =    -441.81916700 Ry
     Harris-Foulkes estimate   =    -441.81917433 Ry
     estimated scf accuracy    <       0.00006439 Ry

     iteration #  5     ecut=    25.00 Ry     beta= 0.70
     Davidson diagonalization with overlap
     ethr =  1.24E-07,  avg # of iterations =  2.6

     total cpu time spent up to now is     3424.0 secs

     total energy              =    -441.81917636 Ry
     Harris-Foulkes estimate   =    -441.81918843 Ry
     estimated scf accuracy    <       0.00002343 Ry

     iteration #  6     ecut=    25.00 Ry     beta= 0.70
     Davidson diagonalization with overlap
     ethr =  4.51E-08,  avg # of iterations =  2.0

     total cpu time spent up to now is     3475.0 secs

     total energy              =    -441.81918124 Ry
     Harris-Foulkes estimate   =    -441.81918144 Ry
     estimated scf accuracy    <       0.00000052 Ry

     iteration #  7     ecut=    25.00 Ry     beta= 0.70
     Davidson diagonalization with overlap
     ethr =  1.00E-09,  avg # of iterations =  2.0

     total cpu time spent up to now is     3529.5 secs

     total energy              =    -441.81918137 Ry
     Harris-Foulkes estimate   =    -441.81918139 Ry
     estimated scf accuracy    <       0.00000003 Ry

     iteration #  8     ecut=    25.00 Ry     beta= 0.70
     Davidson diagonalization with overlap
     ethr =  5.09E-11,  avg # of iterations =  2.0

     total cpu time spent up to now is     3583.3 secs

     total energy              =    -441.81918138 Ry
     Harris-Foulkes estimate   =    -441.81918138 Ry
     estimated scf accuracy    <          2.5E-09 Ry

     iteration #  9     ecut=    25.00 Ry     beta= 0.70
     Davidson diagonalization with overlap
     ethr =  4.87E-12,  avg # of iterations =  2.5

     total cpu time spent up to now is     3632.5 secs

     total energy              =    -441.81918138 Ry
     Harris-Foulkes estimate   =    -441.81918138 Ry
     estimated scf accuracy    <          3.1E-10 Ry

     iteration # 10     ecut=    25.00 Ry     beta= 0.70
     Davidson diagonalization with overlap
     ethr =  5.94E-13,  avg # of iterations =  2.0

     total cpu time spent up to now is     3683.4 secs

     total energy              =    -441.81918138 Ry
     Harris-Foulkes estimate   =    -441.81918138 Ry
     estimated scf accuracy    <          9.6E-12 Ry

     iteration # 11     ecut=    25.00 Ry     beta= 0.70
     Davidson diagonalization with overlap
     ethr =  1.00E-13,  avg # of iterations =  1.6

     total cpu time spent up to now is     3722.6 secs

     End of self-consistent calculation

     Number of k-points >= 100: set verbosity='high' to print the bands.

     highest occupied level (ev):    29.6841

!    total energy              =    -441.81918138 Ry
     Harris-Foulkes estimate   =    -441.81918138 Ry
     estimated scf accuracy    <          3.0E-13 Ry

     The total energy is the sum of the following terms:

     one-electron contribution =      17.69300930 Ry
     hartree contribution      =      65.48097429 Ry
     xc contribution           =    -127.32460215 Ry
     ewald contribution        =    -397.66856282 Ry

     convergence has been achieved in  11 iterations

     Forces acting on atoms (cartesian axes, Ry/au):

     atom    1 type  1   force =    -0.00409005   -0.00409005    0.00000000
     atom    2 type  1   force =     0.00612981    0.00612981    0.00000000
     atom    3 type  2   force =    -0.08870689    0.08586115    0.00000000
     atom    4 type  2   force =     0.08586115   -0.08870689    0.00000000
     atom    5 type  2   force =    -0.08700565   -0.08700565    0.00000000
     atom    6 type  2   force =     0.08781163    0.08781163    0.00000000

     Total force =     0.247290     Total SCF correction =     0.000002


     Computing stress (Cartesian axis) and pressure

          total   stress  (Ry/bohr**3)                   (kbar)     P= 5226.23
   0.03204740  -0.00000038   0.00000000       4714.33     -0.06      0.00
  -0.00000038   0.03204740   0.00000000         -0.06   4714.33      0.00
   0.00000000   0.00000000   0.04248670          0.00      0.00   6250.01


     number of scf cycles    =   5
     number of bfgs steps    =   3

     enthalpy old            =    -441.2151756084 Ry
     enthalpy new            =    -441.8191813800 Ry

     CASE: enthalpy_new < enthalpy_old

     new trust radius        =       0.4938195016 bohr
     new conv_thr            =            1.0E-12 Ry

     new unit-cell volume =    308.67079 a.u.^3 (    45.74029 Ang^3 )
     density =     10.94250 g/cm^3

CELL_PARAMETERS (alat=  9.11000000)
   0.824733607   0.000000000   0.000000000
   0.000000000   0.824733607   0.000000000
   0.000000000   0.000000000   0.600223529

ATOMIC_POSITIONS (crystal)
Sn       0.000316581   0.000316581   0.000000000
Sn       0.500330966   0.500330966   0.500000000
O        0.804761968   0.193967752   0.500000000
O        0.193967752   0.804761968   0.500000000
O        0.304704764   0.304704764   0.000000000
O        0.693917968   0.693917968   0.000000000



     Writing output data file SnO2.save
     NEW-OLD atomic charge density approx. for the potential

     Check: negative/imaginary core charge=   -0.001120    0.000000
     Check: negative starting charge=   -0.000713

     negative rho (up, down):  9.634E-04 0.000E+00
     extrapolated charge   66.18417, renormalised to   52.00000

     total cpu time spent up to now is     3740.7 secs

     Self-consistent Calculation

     iteration #  1     ecut=    25.00 Ry     beta= 0.70
     Davidson diagonalization with overlap
     c_bands:  1 eigenvalues not converged
     c_bands:  1 eigenvalues not converged
     c_bands:  1 eigenvalues not converged
     c_bands:  1 eigenvalues not converged
     c_bands:  1 eigenvalues not converged
     c_bands:  1 eigenvalues not converged
     c_bands:  1 eigenvalues not converged
     c_bands:  1 eigenvalues not converged
     c_bands:  1 eigenvalues not converged
     c_bands:  1 eigenvalues not converged
     ethr =  1.00E-06,  avg # of iterations = 13.0

     negative rho (up, down):  2.052E-04 0.000E+00

     total cpu time spent up to now is     3887.7 secs

     total energy              =    -429.67363540 Ry
     Harris-Foulkes estimate   =    -426.40531744 Ry
     estimated scf accuracy    <       6.61889435 Ry

     iteration #  2     ecut=    25.00 Ry     beta= 0.70
     Davidson diagonalization with overlap
     ethr =  1.00E-02,  avg # of iterations =  4.5

     negative rho (up, down):  9.659E-05 0.000E+00

     total cpu time spent up to now is     3967.9 secs

     total energy              =    -441.89803945 Ry
     Harris-Foulkes estimate   =    -445.58808058 Ry
     estimated scf accuracy    <       8.45920593 Ry

     iteration #  3     ecut=    25.00 Ry     beta= 0.70
     Davidson diagonalization with overlap
     ethr =  1.00E-02,  avg # of iterations =  2.0

     negative rho (up, down):  3.910E-05 0.000E+00

     total cpu time spent up to now is     4010.5 secs

     total energy              =    -441.66666401 Ry
     Harris-Foulkes estimate   =    -442.31830691 Ry
     estimated scf accuracy    <       1.96290056 Ry

     iteration #  4     ecut=    25.00 Ry     beta= 0.70
     Davidson diagonalization with overlap
     ethr =  3.77E-03,  avg # of iterations =  1.0

     total cpu time spent up to now is     4048.2 secs

     total energy              =    -441.38727617 Ry
     Harris-Foulkes estimate   =    -441.72312980 Ry
     estimated scf accuracy    <       0.79871773 Ry

     iteration #  5     ecut=    25.00 Ry     beta= 0.70
     Davidson diagonalization with overlap
     ethr =  1.54E-03,  avg # of iterations =  1.6

     total cpu time spent up to now is     4087.4 secs

     total energy              =    -441.31821375 Ry
     Harris-Foulkes estimate   =    -441.42991650 Ry
     estimated scf accuracy    <       0.17775045 Ry

     iteration #  6     ecut=    25.00 Ry     beta= 0.70
     Davidson diagonalization with overlap
     ethr =  3.42E-04,  avg # of iterations =  2.0

     total cpu time spent up to now is     4142.2 secs

     total energy              =    -441.35503776 Ry
     Harris-Foulkes estimate   =    -441.35547299 Ry
     estimated scf accuracy    <       0.00075162 Ry

     iteration #  7     ecut=    25.00 Ry     beta= 0.70
     Davidson diagonalization with overlap
     ethr =  1.45E-06,  avg # of iterations =  2.5

     total cpu time spent up to now is     4198.6 secs

     total energy              =    -441.35537656 Ry
     Harris-Foulkes estimate   =    -441.35544692 Ry
     estimated scf accuracy    <       0.00025951 Ry

     iteration #  8     ecut=    25.00 Ry     beta= 0.70
     Davidson diagonalization with overlap
     ethr =  4.99E-07,  avg # of iterations =  1.0

     total cpu time spent up to now is     4235.9 secs

     total energy              =    -441.35533035 Ry
     Harris-Foulkes estimate   =    -441.35538820 Ry
     estimated scf accuracy    <       0.00011084 Ry

     iteration #  9     ecut=    25.00 Ry     beta= 0.70
     Davidson diagonalization with overlap
     ethr =  2.13E-07,  avg # of iterations =  2.0

     total cpu time spent up to now is     4282.5 secs

     total energy              =    -441.35533969 Ry
     Harris-Foulkes estimate   =    -441.35534235 Ry
     estimated scf accuracy    <       0.00000579 Ry

     iteration # 10     ecut=    25.00 Ry     beta= 0.70
     Davidson diagonalization with overlap
     ethr =  1.11E-08,  avg # of iterations =  2.0

     total cpu time spent up to now is     4332.7 secs

     total energy              =    -441.35534054 Ry
     Harris-Foulkes estimate   =    -441.35534078 Ry
     estimated scf accuracy    <       0.00000043 Ry

     iteration # 11     ecut=    25.00 Ry     beta= 0.70
     Davidson diagonalization with overlap
     ethr =  8.36E-10,  avg # of iterations =  2.0

     total cpu time spent up to now is     4387.1 secs

     total energy              =    -441.35534060 Ry
     Harris-Foulkes estimate   =    -441.35534062 Ry
     estimated scf accuracy    <       0.00000005 Ry

     iteration # 12     ecut=    25.00 Ry     beta= 0.70
     Davidson diagonalization with overlap
     ethr =  8.78E-11,  avg # of iterations =  2.0

     total cpu time spent up to now is     4435.3 secs

     total energy              =    -441.35534060 Ry
     Harris-Foulkes estimate   =    -441.35534060 Ry
     estimated scf accuracy    <          3.7E-09 Ry

     iteration # 13     ecut=    25.00 Ry     beta= 0.70
     Davidson diagonalization with overlap
     ethr =  7.14E-12,  avg # of iterations =  2.0

     total cpu time spent up to now is     4483.0 secs

     total energy              =    -441.35534060 Ry
     Harris-Foulkes estimate   =    -441.35534060 Ry
     estimated scf accuracy    <          4.0E-10 Ry

     iteration # 14     ecut=    25.00 Ry     beta= 0.70
     Davidson diagonalization with overlap
     ethr =  7.69E-13,  avg # of iterations =  2.0

     total cpu time spent up to now is     4533.5 secs

     total energy              =    -441.35534060 Ry
     Harris-Foulkes estimate   =    -441.35534060 Ry
     estimated scf accuracy    <          3.3E-11 Ry

     iteration # 15     ecut=    25.00 Ry     beta= 0.70
     Davidson diagonalization with overlap
     ethr =  1.00E-13,  avg # of iterations =  2.0

     total cpu time spent up to now is     4579.7 secs

     total energy              =    -441.35534060 Ry
     Harris-Foulkes estimate   =    -441.35534060 Ry
     estimated scf accuracy    <          1.1E-12 Ry

     iteration # 16     ecut=    25.00 Ry     beta= 0.70
     Davidson diagonalization with overlap
     ethr =  1.00E-13,  avg # of iterations =  1.0

     total cpu time spent up to now is     4617.6 secs

     End of self-consistent calculation

     Number of k-points >= 100: set verbosity='high' to print the bands.

     highest occupied level (ev):    19.7266

!    total energy              =    -441.35534060 Ry
     Harris-Foulkes estimate   =    -441.35534060 Ry
     estimated scf accuracy    <          8.3E-14 Ry

     The total energy is the sum of the following terms:

     one-electron contribution =     -31.38703726 Ry
     hartree contribution      =      72.97849189 Ry
     xc contribution           =    -123.32326560 Ry
     ewald contribution        =    -359.62352963 Ry

     convergence has been achieved in  16 iterations

     Forces acting on atoms (cartesian axes, Ry/au):

     atom    1 type  1   force =    -0.01660697   -0.01660697    0.00000000
     atom    2 type  1   force =    -0.00368494   -0.00368494    0.00000000
     atom    3 type  2   force =     0.04837286   -0.05285147    0.00000000
     atom    4 type  2   force =    -0.05285147    0.04837286    0.00000000
     atom    5 type  2   force =     0.06321665    0.06321665    0.00000000
     atom    6 type  2   force =    -0.03844613   -0.03844613    0.00000000

     Total force =     0.147628     Total SCF correction =     0.000000


     Computing stress (Cartesian axis) and pressure

          total   stress  (Ry/bohr**3)                   (kbar)     P=-4896.55
  -0.02709732   0.00000280   0.00000000      -3986.15      0.41      0.00
   0.00000280  -0.02709732   0.00000000          0.41  -3986.15      0.00
   0.00000000   0.00000000  -0.04566354          0.00      0.00  -6717.34


     number of scf cycles    =   6
     number of bfgs steps    =   4

     enthalpy old            =    -441.8191813800 Ry
     enthalpy new            =    -441.3553406028 Ry

     CASE: enthalpy_new > enthalpy_old

     new trust radius        =       0.2133228110 bohr
     new conv_thr            =            1.0E-12 Ry

     new unit-cell volume =    258.52213 a.u.^3 (    38.30903 Ang^3 )
     density =     13.06515 g/cm^3

CELL_PARAMETERS (alat=  9.11000000)
   0.787233830   0.000000000   0.000000000
   0.000000000   0.787233830   0.000000000
   0.000000000   0.000000000   0.551740802

ATOMIC_POSITIONS (crystal)
Sn       0.000131934   0.000131934   0.000000000
Sn       0.499901794   0.499901794   0.500000000
O        0.803628455   0.195162275   0.500000000
O        0.195162275   0.803628455   0.500000000
O        0.303821118   0.303821118   0.000000000
O        0.695354423   0.695354423   0.000000000



     Writing output data file SnO2.save
     Check: negative starting charge=   -0.000713
     NEW-OLD atomic charge density approx. for the potential

     Check: negative/imaginary core charge=   -0.000750    0.000000
     extrapolated charge   41.91353, renormalised to   52.00000

     total cpu time spent up to now is     4635.8 secs

     Self-consistent Calculation

     iteration #  1     ecut=    25.00 Ry     beta= 0.70
     Davidson diagonalization with overlap
     ethr =  1.00E-06,  avg # of iterations =  6.0

     total cpu time spent up to now is     4745.6 secs

     total energy              =    -439.59980924 Ry
     Harris-Foulkes estimate   =    -450.81796650 Ry
     estimated scf accuracy    <       2.63050323 Ry

     iteration #  2     ecut=    25.00 Ry     beta= 0.70
     Davidson diagonalization with overlap
     ethr =  5.06E-03,  avg # of iterations =  3.0

     total cpu time spent up to now is     4805.7 secs

     total energy              =    -442.29294723 Ry
     Harris-Foulkes estimate   =    -443.04068476 Ry
     estimated scf accuracy    <       1.62475483 Ry

     iteration #  3     ecut=    25.00 Ry     beta= 0.70
     Davidson diagonalization with overlap
     ethr =  3.12E-03,  avg # of iterations =  2.0

     total cpu time spent up to now is     4851.1 secs

     total energy              =    -442.36376013 Ry
     Harris-Foulkes estimate   =    -442.44092794 Ry
     estimated scf accuracy    <       0.15846486 Ry

     iteration #  4     ecut=    25.00 Ry     beta= 0.70
     Davidson diagonalization with overlap
     ethr =  3.05E-04,  avg # of iterations =  2.0

     total cpu time spent up to now is     4897.4 secs

     total energy              =    -442.37258428 Ry
     Harris-Foulkes estimate   =    -442.38171401 Ry
     estimated scf accuracy    <       0.01436206 Ry

     iteration #  5     ecut=    25.00 Ry     beta= 0.70
     Davidson diagonalization with overlap
     ethr =  2.76E-05,  avg # of iterations =  2.3

     total cpu time spent up to now is     4952.6 secs

     total energy              =    -442.37688616 Ry
     Harris-Foulkes estimate   =    -442.37773041 Ry
     estimated scf accuracy    <       0.00161958 Ry

     iteration #  6     ecut=    25.00 Ry     beta= 0.70
     Davidson diagonalization with overlap
     ethr =  3.11E-06,  avg # of iterations =  2.0

     total cpu time spent up to now is     5000.6 secs

     total energy              =    -442.37707628 Ry
     Harris-Foulkes estimate   =    -442.37710569 Ry
     estimated scf accuracy    <       0.00005883 Ry

     iteration #  7     ecut=    25.00 Ry     beta= 0.70
     Davidson diagonalization with overlap
     ethr =  1.13E-07,  avg # of iterations =  2.0

     total cpu time spent up to now is     5052.5 secs

     total energy              =    -442.37708387 Ry
     Harris-Foulkes estimate   =    -442.37708523 Ry
     estimated scf accuracy    <       0.00000332 Ry

     iteration #  8     ecut=    25.00 Ry     beta= 0.70
     Davidson diagonalization with overlap
     ethr =  6.39E-09,  avg # of iterations =  2.0

     total cpu time spent up to now is     5099.3 secs

     total energy              =    -442.37708391 Ry
     Harris-Foulkes estimate   =    -442.37708419 Ry
     estimated scf accuracy    <       0.00000049 Ry

     iteration #  9     ecut=    25.00 Ry     beta= 0.70
     Davidson diagonalization with overlap
     ethr =  9.49E-10,  avg # of iterations =  2.0

     total cpu time spent up to now is     5152.3 secs

     total energy              =    -442.37708401 Ry
     Harris-Foulkes estimate   =    -442.37708401 Ry
     estimated scf accuracy    <          2.0E-09 Ry

     iteration # 10     ecut=    25.00 Ry     beta= 0.70
     Davidson diagonalization with overlap
     ethr =  3.85E-12,  avg # of iterations =  3.0

     total cpu time spent up to now is     5212.8 secs

     total energy              =    -442.37708401 Ry
     Harris-Foulkes estimate   =    -442.37708401 Ry
     estimated scf accuracy    <          3.7E-10 Ry

     iteration # 11     ecut=    25.00 Ry     beta= 0.70
     Davidson diagonalization with overlap
     ethr =  7.08E-13,  avg # of iterations =  2.0

     total cpu time spent up to now is     5265.3 secs

     total energy              =    -442.37708401 Ry
     Harris-Foulkes estimate   =    -442.37708401 Ry
     estimated scf accuracy    <          3.3E-12 Ry

     iteration # 12     ecut=    25.00 Ry     beta= 0.70
     Davidson diagonalization with overlap
     ethr =  1.00E-13,  avg # of iterations =  1.0

     total cpu time spent up to now is     5303.0 secs

     End of self-consistent calculation

     Number of k-points >= 100: set verbosity='high' to print the bands.

     highest occupied level (ev):    24.7824

!    total energy              =    -442.37708401 Ry
     Harris-Foulkes estimate   =    -442.37708401 Ry
     estimated scf accuracy    <          4.2E-13 Ry

     The total energy is the sum of the following terms:

     one-electron contribution =      -5.40184352 Ry
     hartree contribution      =      68.98449905 Ry
     xc contribution           =    -125.57418153 Ry
     ewald contribution        =    -380.38555801 Ry

     convergence has been achieved in  12 iterations

     Forces acting on atoms (cartesian axes, Ry/au):

     atom    1 type  1   force =    -0.01226472   -0.01226472    0.00000000
     atom    2 type  1   force =    -0.00128971   -0.00128971    0.00000000
     atom    3 type  2   force =     0.00132256   -0.00543965    0.00000000
     atom    4 type  2   force =    -0.00543965    0.00132256    0.00000000
     atom    5 type  2   force =     0.01226486    0.01226486    0.00000000
     atom    6 type  2   force =     0.00540667    0.00540667    0.00000000

     Total force =     0.026948     Total SCF correction =     0.000002


     Computing stress (Cartesian axis) and pressure

          total   stress  (Ry/bohr**3)                   (kbar)     P= -140.26
   0.00036774   0.00000110   0.00000000         54.10      0.16      0.00
   0.00000110   0.00036774   0.00000000          0.16     54.10      0.00
   0.00000000   0.00000000  -0.00359585          0.00      0.00   -528.97


     number of scf cycles    =   7
     number of bfgs steps    =   4

     enthalpy old            =    -441.8191813800 Ry
     enthalpy new            =    -442.3770840110 Ry

     CASE: enthalpy_new < enthalpy_old

     new trust radius        =       0.0496176910 bohr
     new conv_thr            =            1.0E-12 Ry

     new unit-cell volume =    258.12727 a.u.^3 (    38.25052 Ang^3 )
     density =     13.08513 g/cm^3

CELL_PARAMETERS (alat=  9.11000000)
   0.792772300   0.000000000   0.000000000
   0.000000000   0.792772300   0.000000000
   0.000000000   0.000000000   0.543227603

ATOMIC_POSITIONS (crystal)
Sn      -0.001121302  -0.001121302   0.000000000
Sn       0.499804016   0.499804016   0.500000000
O        0.800627779   0.197786547   0.500000000
O        0.197786547   0.800627779   0.500000000
O        0.301874200   0.301874200   0.000000000
O        0.699028759   0.699028759   0.000000000



     Writing output data file SnO2.save
     NEW-OLD atomic charge density approx. for the potential

     Check: negative/imaginary core charge=   -0.000740    0.000000
     extrapolated charge   51.92046, renormalised to   52.00000

     total cpu time spent up to now is     5321.2 secs

     Self-consistent Calculation

     iteration #  1     ecut=    25.00 Ry     beta= 0.70
     Davidson diagonalization with overlap
     ethr =  1.00E-06,  avg # of iterations =  5.0

     total cpu time spent up to now is     5412.7 secs

     total energy              =    -442.38182918 Ry
     Harris-Foulkes estimate   =    -442.45205831 Ry
     estimated scf accuracy    <       0.00156726 Ry

     iteration #  2     ecut=    25.00 Ry     beta= 0.70
     Davidson diagonalization with overlap
     ethr =  3.01E-06,  avg # of iterations =  2.0

     total cpu time spent up to now is     5467.1 secs

     total energy              =    -442.38222259 Ry
     Harris-Foulkes estimate   =    -442.38229746 Ry
     estimated scf accuracy    <       0.00018643 Ry

     iteration #  3     ecut=    25.00 Ry     beta= 0.70
     Davidson diagonalization with overlap
     ethr =  3.59E-07,  avg # of iterations =  2.0

     total cpu time spent up to now is     5517.1 secs

     total energy              =    -442.38225490 Ry
     Harris-Foulkes estimate   =    -442.38225427 Ry
     estimated scf accuracy    <       0.00000980 Ry

     iteration #  4     ecut=    25.00 Ry     beta= 0.70
     Davidson diagonalization with overlap
     ethr =  1.88E-08,  avg # of iterations =  2.0

     total cpu time spent up to now is     5570.4 secs

     total energy              =    -442.38225657 Ry
     Harris-Foulkes estimate   =    -442.38225728 Ry
     estimated scf accuracy    <       0.00000159 Ry

     iteration #  5     ecut=    25.00 Ry     beta= 0.70
     Davidson diagonalization with overlap
     ethr =  3.05E-09,  avg # of iterations =  2.3

     total cpu time spent up to now is     5624.2 secs

     total energy              =    -442.38225696 Ry
     Harris-Foulkes estimate   =    -442.38225706 Ry
     estimated scf accuracy    <       0.00000022 Ry

     iteration #  6     ecut=    25.00 Ry     beta= 0.70
     Davidson diagonalization with overlap
     ethr =  4.29E-10,  avg # of iterations =  2.1

     total cpu time spent up to now is     5676.7 secs

     total energy              =    -442.38225702 Ry
     Harris-Foulkes estimate   =    -442.38225702 Ry
     estimated scf accuracy    <       0.00000001 Ry

     iteration #  7     ecut=    25.00 Ry     beta= 0.70
     Davidson diagonalization with overlap
     ethr =  2.50E-11,  avg # of iterations =  2.0

     total cpu time spent up to now is     5726.7 secs

     total energy              =    -442.38225702 Ry
     Harris-Foulkes estimate   =    -442.38225702 Ry
     estimated scf accuracy    <          1.2E-10 Ry

     iteration #  8     ecut=    25.00 Ry     beta= 0.70
     Davidson diagonalization with overlap
     ethr =  2.38E-13,  avg # of iterations =  2.4

     total cpu time spent up to now is     5783.0 secs

     total energy              =    -442.38225702 Ry
     Harris-Foulkes estimate   =    -442.38225702 Ry
     estimated scf accuracy    <          9.7E-12 Ry

     iteration #  9     ecut=    25.00 Ry     beta= 0.70
     Davidson diagonalization with overlap
     ethr =  1.00E-13,  avg # of iterations =  1.9

     total cpu time spent up to now is     5823.1 secs

     End of self-consistent calculation

     Number of k-points >= 100: set verbosity='high' to print the bands.

     highest occupied level (ev):    24.7255

!    total energy              =    -442.38225702 Ry
     Harris-Foulkes estimate   =    -442.38225702 Ry
     estimated scf accuracy    <          9.8E-13 Ry

     The total energy is the sum of the following terms:

     one-electron contribution =      -6.06162711 Ry
     hartree contribution      =      69.34746920 Ry
     xc contribution           =    -125.62064264 Ry
     ewald contribution        =    -380.04745647 Ry

     convergence has been achieved in   9 iterations

     Forces acting on atoms (cartesian axes, Ry/au):

     atom    1 type  1   force =     0.04487397    0.04487397    0.00000000
     atom    2 type  1   force =     0.00846802    0.00846802    0.00000000
     atom    3 type  2   force =     0.01117162   -0.00586982    0.00000000
     atom    4 type  2   force =    -0.00586982    0.01117162    0.00000000
     atom    5 type  2   force =    -0.02032017   -0.02032017    0.00000000
     atom    6 type  2   force =    -0.03832363   -0.03832363    0.00000000

     Total force =     0.090843     Total SCF correction =     0.000003


     Computing stress (Cartesian axis) and pressure

          total   stress  (Ry/bohr**3)                   (kbar)     P=  -26.39
  -0.00037621   0.00000677   0.00000000        -55.34      1.00      0.00
   0.00000677  -0.00037621   0.00000000          1.00    -55.34      0.00
   0.00000000   0.00000000   0.00021418          0.00      0.00     31.51


     number of scf cycles    =   8
     number of bfgs steps    =   5

     enthalpy old            =    -442.3770840110 Ry
     enthalpy new            =    -442.3822570230 Ry

     CASE: enthalpy_new < enthalpy_old

     new trust radius        =       0.0280763690 bohr
     new conv_thr            =            1.0E-12 Ry

     new unit-cell volume =    257.74749 a.u.^3 (    38.19424 Ang^3 )
     density =     13.10441 g/cm^3

CELL_PARAMETERS (alat=  9.11000000)
   0.792021334   0.000000000   0.000000000
   0.000000000   0.792021334   0.000000000
   0.000000000   0.000000000   0.543457457

ATOMIC_POSITIONS (crystal)
Sn       0.001627599   0.001627599   0.000000000
Sn       0.500340234   0.500340234   0.500000000
O        0.801121024   0.197582411   0.500000000
O        0.197582411   0.801121024   0.500000000
O        0.300467585   0.300467585   0.000000000
O        0.696861147   0.696861147   0.000000000



     Writing output data file SnO2.save
     NEW-OLD atomic charge density approx. for the potential

     Check: negative/imaginary core charge=   -0.000737    0.000000
     extrapolated charge   51.92338, renormalised to   52.00000

     total cpu time spent up to now is     5841.5 secs

     Self-consistent Calculation

     iteration #  1     ecut=    25.00 Ry     beta= 0.70
     Davidson diagonalization with overlap
     ethr =  1.00E-06,  avg # of iterations =  4.2

     total cpu time spent up to now is     5929.0 secs

     total energy              =    -442.38097514 Ry
     Harris-Foulkes estimate   =    -442.44807767 Ry
     estimated scf accuracy    <       0.00065049 Ry

     iteration #  2     ecut=    25.00 Ry     beta= 0.70
     Davidson diagonalization with overlap
     ethr =  1.25E-06,  avg # of iterations =  2.0

     total cpu time spent up to now is     5983.8 secs

     total energy              =    -442.38121361 Ry
     Harris-Foulkes estimate   =    -442.38128689 Ry
     estimated scf accuracy    <       0.00015508 Ry

     iteration #  3     ecut=    25.00 Ry     beta= 0.70
     Davidson diagonalization with overlap
     ethr =  2.98E-07,  avg # of iterations =  2.0

     total cpu time spent up to now is     6032.2 secs

     total energy              =    -442.38123713 Ry
     Harris-Foulkes estimate   =    -442.38123826 Ry
     estimated scf accuracy    <       0.00000865 Ry

     iteration #  4     ecut=    25.00 Ry     beta= 0.70
     Davidson diagonalization with overlap
     ethr =  1.66E-08,  avg # of iterations =  2.0

     total cpu time spent up to now is     6087.3 secs

     total energy              =    -442.38123872 Ry
     Harris-Foulkes estimate   =    -442.38123999 Ry
     estimated scf accuracy    <       0.00000240 Ry

     iteration #  5     ecut=    25.00 Ry     beta= 0.70
     Davidson diagonalization with overlap
     ethr =  4.61E-09,  avg # of iterations =  2.2

     total cpu time spent up to now is     6139.1 secs

     total energy              =    -442.38123933 Ry
     Harris-Foulkes estimate   =    -442.38123940 Ry
     estimated scf accuracy    <       0.00000017 Ry

     iteration #  6     ecut=    25.00 Ry     beta= 0.70
     Davidson diagonalization with overlap
     ethr =  3.25E-10,  avg # of iterations =  2.0

     total cpu time spent up to now is     6192.3 secs

     total energy              =    -442.38123936 Ry
     Harris-Foulkes estimate   =    -442.38123936 Ry
     estimated scf accuracy    <       0.00000001 Ry

     iteration #  7     ecut=    25.00 Ry     beta= 0.70
     Davidson diagonalization with overlap
     ethr =  1.94E-11,  avg # of iterations =  2.0

     total cpu time spent up to now is     6246.0 secs

     total energy              =    -442.38123936 Ry
     Harris-Foulkes estimate   =    -442.38123936 Ry
     estimated scf accuracy    <          2.3E-10 Ry

     iteration #  8     ecut=    25.00 Ry     beta= 0.70
     Davidson diagonalization with overlap
     ethr =  4.38E-13,  avg # of iterations =  2.7

     total cpu time spent up to now is     6300.4 secs

     total energy              =    -442.38123936 Ry
     Harris-Foulkes estimate   =    -442.38123936 Ry
     estimated scf accuracy    <          3.4E-11 Ry

     iteration #  9     ecut=    25.00 Ry     beta= 0.70
     Davidson diagonalization with overlap
     ethr =  1.00E-13,  avg # of iterations =  2.6

     total cpu time spent up to now is     6349.8 secs

     total energy              =    -442.38123936 Ry
     Harris-Foulkes estimate   =    -442.38123936 Ry
     estimated scf accuracy    <          2.9E-12 Ry

     iteration # 10     ecut=    25.00 Ry     beta= 0.70
     Davidson diagonalization with overlap
     ethr =  1.00E-13,  avg # of iterations =  1.0

     total cpu time spent up to now is     6387.7 secs

     End of self-consistent calculation

     Number of k-points >= 100: set verbosity='high' to print the bands.

     highest occupied level (ev):    24.7817

!    total energy              =    -442.38123936 Ry
     Harris-Foulkes estimate   =    -442.38123936 Ry
     estimated scf accuracy    <          1.0E-13 Ry

     The total energy is the sum of the following terms:

     one-electron contribution =      -5.79831305 Ry
     hartree contribution      =      69.29973086 Ry
     xc contribution           =    -125.63790402 Ry
     ewald contribution        =    -380.24475315 Ry

     convergence has been achieved in  10 iterations

     Forces acting on atoms (cartesian axes, Ry/au):

     atom    1 type  1   force =    -0.07588225   -0.07588225    0.00000000
     atom    2 type  1   force =    -0.01492774   -0.01492774    0.00000000
     atom    3 type  2   force =    -0.00431529   -0.01299412    0.00000000
     atom    4 type  2   force =    -0.01299412   -0.00431529    0.00000000
     atom    5 type  2   force =     0.05914665    0.05914665    0.00000000
     atom    6 type  2   force =     0.04897277    0.04897277    0.00000000

     Total force =     0.155339     Total SCF correction =     0.000001


     Computing stress (Cartesian axis) and pressure

          total   stress  (Ry/bohr**3)                   (kbar)     P=   19.64
  -0.00003775   0.00002167   0.00000000         -5.55      3.19      0.00
   0.00002167  -0.00003775   0.00000000          3.19     -5.55      0.00
   0.00000000   0.00000000   0.00047602          0.00      0.00     70.02


     number of scf cycles    =   9
     number of bfgs steps    =   6

     enthalpy old            =    -442.3822570230 Ry
     enthalpy new            =    -442.3812393634 Ry

     CASE: enthalpy_new > enthalpy_old

     new trust radius        =       0.0110402715 bohr
     new conv_thr            =            1.0E-12 Ry

     new unit-cell volume =    257.97779 a.u.^3 (    38.22836 Ang^3 )
     density =     13.09271 g/cm^3

CELL_PARAMETERS (alat=  9.11000000)
   0.792476723   0.000000000   0.000000000
   0.000000000   0.792476723   0.000000000
   0.000000000   0.000000000   0.543318072

ATOMIC_POSITIONS (crystal)
Sn      -0.000039346  -0.000039346   0.000000000
Sn       0.500015070   0.500015070   0.500000000
O        0.800821918   0.197706200   0.500000000
O        0.197706200   0.800821918   0.500000000
O        0.301320562   0.301320562   0.000000000
O        0.698175596   0.698175596   0.000000000



     Writing output data file SnO2.save
     NEW-OLD atomic charge density approx. for the potential

     Check: negative/imaginary core charge=   -0.000739    0.000000
     extrapolated charge   52.04642, renormalised to   52.00000

     total cpu time spent up to now is     6405.5 secs

     Self-consistent Calculation

     iteration #  1     ecut=    25.00 Ry     beta= 0.70
     Davidson diagonalization with overlap
     ethr =  1.00E-06,  avg # of iterations =  4.0

     total cpu time spent up to now is     6488.4 secs

     total energy              =    -442.38289647 Ry
     Harris-Foulkes estimate   =    -442.34249904 Ry
     estimated scf accuracy    <       0.00024253 Ry

     iteration #  2     ecut=    25.00 Ry     beta= 0.70
     Davidson diagonalization with overlap
     ethr =  4.66E-07,  avg # of iterations =  2.0

     total cpu time spent up to now is     6543.0 secs

     total energy              =    -442.38298598 Ry
     Harris-Foulkes estimate   =    -442.38301355 Ry
     estimated scf accuracy    <       0.00005800 Ry

     iteration #  3     ecut=    25.00 Ry     beta= 0.70
     Davidson diagonalization with overlap
     ethr =  1.12E-07,  avg # of iterations =  2.0

     total cpu time spent up to now is     6591.7 secs

     total energy              =    -442.38299473 Ry
     Harris-Foulkes estimate   =    -442.38299528 Ry
     estimated scf accuracy    <       0.00000338 Ry

     iteration #  4     ecut=    25.00 Ry     beta= 0.70
     Davidson diagonalization with overlap
     ethr =  6.50E-09,  avg # of iterations =  2.0

     total cpu time spent up to now is     6647.0 secs

     total energy              =    -442.38299537 Ry
     Harris-Foulkes estimate   =    -442.38299590 Ry
     estimated scf accuracy    <       0.00000100 Ry

     iteration #  5     ecut=    25.00 Ry     beta= 0.70
     Davidson diagonalization with overlap
     ethr =  1.92E-09,  avg # of iterations =  2.2

     total cpu time spent up to now is     6699.2 secs

     total energy              =    -442.38299562 Ry
     Harris-Foulkes estimate   =    -442.38299564 Ry
     estimated scf accuracy    <       0.00000006 Ry

     iteration #  6     ecut=    25.00 Ry     beta= 0.70
     Davidson diagonalization with overlap
     ethr =  1.15E-10,  avg # of iterations =  2.0

     total cpu time spent up to now is     6751.8 secs

     total energy              =    -442.38299563 Ry
     Harris-Foulkes estimate   =    -442.38299563 Ry
     estimated scf accuracy    <          3.7E-09 Ry

     iteration #  7     ecut=    25.00 Ry     beta= 0.70
     Davidson diagonalization with overlap
     ethr =  7.06E-12,  avg # of iterations =  2.0

     total cpu time spent up to now is     6805.4 secs

     total energy              =    -442.38299563 Ry
     Harris-Foulkes estimate   =    -442.38299563 Ry
     estimated scf accuracy    <          1.0E-10 Ry

     iteration #  8     ecut=    25.00 Ry     beta= 0.70
     Davidson diagonalization with overlap
     ethr =  1.94E-13,  avg # of iterations =  2.9

     total cpu time spent up to now is     6859.0 secs

     total energy              =    -442.38299563 Ry
     Harris-Foulkes estimate   =    -442.38299563 Ry
     estimated scf accuracy    <          1.6E-11 Ry

     iteration #  9     ecut=    25.00 Ry     beta= 0.70
     Davidson diagonalization with overlap
     ethr =  1.00E-13,  avg # of iterations =  2.0

     total cpu time spent up to now is     6902.1 secs

     End of self-consistent calculation

     Number of k-points >= 100: set verbosity='high' to print the bands.

     highest occupied level (ev):    24.7478

!    total energy              =    -442.38299563 Ry
     Harris-Foulkes estimate   =    -442.38299563 Ry
     estimated scf accuracy    <          9.4E-13 Ry

     The total energy is the sum of the following terms:

     one-electron contribution =      -5.94768642 Ry
     hartree contribution      =      69.32374623 Ry
     xc contribution           =    -125.62709661 Ry
     ewald contribution        =    -380.13195884 Ry

     convergence has been achieved in   9 iterations

     Forces acting on atoms (cartesian axes, Ry/au):

     atom    1 type  1   force =    -0.00277300   -0.00277300    0.00000000
     atom    2 type  1   force =    -0.00073322   -0.00073322    0.00000000
     atom    3 type  2   force =     0.00504899   -0.00862543    0.00000000
     atom    4 type  2   force =    -0.00862543    0.00504899    0.00000000
     atom    5 type  2   force =     0.00997202    0.00997202    0.00000000
     atom    6 type  2   force =    -0.00288936   -0.00288936    0.00000000

     Total force =     0.020780     Total SCF correction =     0.000002


     Computing stress (Cartesian axis) and pressure

          total   stress  (Ry/bohr**3)                   (kbar)     P=   -9.60
  -0.00025570  -0.00000187   0.00000000        -37.62     -0.27      0.00
  -0.00000187  -0.00025570   0.00000000         -0.27    -37.62      0.00
   0.00000000   0.00000000   0.00031567          0.00      0.00     46.44


     number of scf cycles    =  10
     number of bfgs steps    =   6

     enthalpy old            =    -442.3822570230 Ry
     enthalpy new            =    -442.3829956297 Ry

     CASE: enthalpy_new < enthalpy_old

     new trust radius        =       0.0117212005 bohr
     new conv_thr            =            1.0E-12 Ry

     new unit-cell volume =    257.75174 a.u.^3 (    38.19487 Ang^3 )
     density =     13.10420 g/cm^3

CELL_PARAMETERS (alat=  9.11000000)
   0.790692147   0.000000000   0.000000000
   0.000000000   0.790692147   0.000000000
   0.000000000   0.000000000   0.545295139

ATOMIC_POSITIONS (crystal)
Sn      -0.000043119  -0.000043119   0.000000000
Sn       0.499988716   0.499988716   0.500000000
O        0.801707369   0.196540296   0.500000000
O        0.196540296   0.801707369   0.500000000
O        0.302468590   0.302468590   0.000000000
O        0.697338148   0.697338148   0.000000000



     Writing output data file SnO2.save
     NEW-OLD atomic charge density approx. for the potential

     Check: negative/imaginary core charge=   -0.000739    0.000000
     extrapolated charge   51.95440, renormalised to   52.00000

     total cpu time spent up to now is     6919.8 secs

     Self-consistent Calculation

     iteration #  1     ecut=    25.00 Ry     beta= 0.70
     Davidson diagonalization with overlap
     ethr =  1.00E-06,  avg # of iterations =  4.0

     total cpu time spent up to now is     6998.7 secs

     total energy              =    -442.38320452 Ry
     Harris-Foulkes estimate   =    -442.42294345 Ry
     estimated scf accuracy    <       0.00021151 Ry

     iteration #  2     ecut=    25.00 Ry     beta= 0.70
     Davidson diagonalization with overlap
     ethr =  4.07E-07,  avg # of iterations =  2.0

     total cpu time spent up to now is     7053.3 secs

     total energy              =    -442.38329768 Ry
     Harris-Foulkes estimate   =    -442.38332196 Ry
     estimated scf accuracy    <       0.00004897 Ry

     iteration #  3     ecut=    25.00 Ry     beta= 0.70
     Davidson diagonalization with overlap
     ethr =  9.42E-08,  avg # of iterations =  2.0

     total cpu time spent up to now is     7100.9 secs

     total energy              =    -442.38330367 Ry
     Harris-Foulkes estimate   =    -442.38330405 Ry
     estimated scf accuracy    <       0.00000220 Ry

     iteration #  4     ecut=    25.00 Ry     beta= 0.70
     Davidson diagonalization with overlap
     ethr =  4.23E-09,  avg # of iterations =  2.0

     total cpu time spent up to now is     7156.3 secs

     total energy              =    -442.38330409 Ry
     Harris-Foulkes estimate   =    -442.38330418 Ry
     estimated scf accuracy    <       0.00000018 Ry

     iteration #  5     ecut=    25.00 Ry     beta= 0.70
     Davidson diagonalization with overlap
     ethr =  3.47E-10,  avg # of iterations =  2.0

     total cpu time spent up to now is     7209.9 secs

     total energy              =    -442.38330413 Ry
     Harris-Foulkes estimate   =    -442.38330414 Ry
     estimated scf accuracy    <       0.00000003 Ry

     iteration #  6     ecut=    25.00 Ry     beta= 0.70
     Davidson diagonalization with overlap
     ethr =  5.85E-11,  avg # of iterations =  2.0

     total cpu time spent up to now is     7263.4 secs

     total energy              =    -442.38330413 Ry
     Harris-Foulkes estimate   =    -442.38330413 Ry
     estimated scf accuracy    <          3.3E-09 Ry

     iteration #  7     ecut=    25.00 Ry     beta= 0.70
     Davidson diagonalization with overlap
     ethr =  6.32E-12,  avg # of iterations =  2.0

     total cpu time spent up to now is     7313.4 secs

     total energy              =    -442.38330413 Ry
     Harris-Foulkes estimate   =    -442.38330413 Ry
     estimated scf accuracy    <          5.5E-11 Ry

     iteration #  8     ecut=    25.00 Ry     beta= 0.70
     Davidson diagonalization with overlap
     ethr =  1.07E-13,  avg # of iterations =  2.1

     total cpu time spent up to now is     7368.3 secs

     total energy              =    -442.38330413 Ry
     Harris-Foulkes estimate   =    -442.38330413 Ry
     estimated scf accuracy    <          2.5E-12 Ry

     iteration #  9     ecut=    25.00 Ry     beta= 0.70
     Davidson diagonalization with overlap
     ethr =  1.00E-13,  avg # of iterations =  1.0

     total cpu time spent up to now is     7405.9 secs

     End of self-consistent calculation

     Number of k-points >= 100: set verbosity='high' to print the bands.

     highest occupied level (ev):    24.8069

!    total energy              =    -442.38330413 Ry
     Harris-Foulkes estimate   =    -442.38330413 Ry
     estimated scf accuracy    <          1.4E-13 Ry

[...]
   0.00716437  -0.00000990  -0.00000000       1053.91     -1.46     -0.00
   0.00000000  -0.00000000  -0.00001579          0.00     -0.00     -2.32


     number of scf cycles    =  41
     number of bfgs steps    =  34

     enthalpy old            =    -442.6675227631 Ry
     enthalpy new            =    -442.6675226694 Ry

     CASE: enthalpy_new > enthalpy_old

     new trust radius        =       0.0000203912 bohr

     trust_radius < trust_radius_min

     resetting bfgs history

     Message from routine bfgs:
     history already reset at previous step: stopping
     new conv_thr            =            1.0E-12 Ry

     new unit-cell volume =    250.44423 a.u.^3 (    37.11201 Ang^3 )
     density =     13.48655 g/cm^3

CELL_PARAMETERS (alat=  9.11000000)
   0.780849818   0.000000000   0.000000000
   0.000000000   0.780849818   0.000000000
   0.000000000   0.000000000   0.543276451

ATOMIC_POSITIONS (crystal)
Sn       0.046620821   0.046620821   0.000000000
Sn       0.555522044   0.555522044   0.500000000
O        0.703276323   0.115746655   0.500000000
O        0.115746655   0.703276323   0.500000000
O        0.344102499   0.344102499   0.000000000
O        0.732731657   0.732731657   0.000000000



     Writing output data file SnO2.save
     NEW-OLD atomic charge density approx. for the potential

     Check: negative/imaginary core charge=   -0.000687    0.000000
     extrapolated charge   52.00375, renormalised to   52.00000

     total cpu time spent up to now is    23957.0 secs

     Self-consistent Calculation

     iteration #  1     ecut=    25.00 Ry     beta= 0.70
     Davidson diagonalization with overlap
     ethr =  1.00E-06,  avg # of iterations =  1.0

     Threshold (ethr) on eigenvalues was too large:
     Diagonalizing with lowered threshold

     Davidson diagonalization with overlap
     ethr =  5.66E-10,  avg # of iterations =  3.0

     total cpu time spent up to now is    24052.6 secs

     total energy              =    -442.66752170 Ry
     Harris-Foulkes estimate   =    -442.66528750 Ry
     estimated scf accuracy    <       0.00000034 Ry

     iteration #  2     ecut=    25.00 Ry     beta= 0.70
     Davidson diagonalization with overlap
     ethr =  6.63E-10,  avg # of iterations =  3.2

     total cpu time spent up to now is    24119.1 secs

     total energy              =    -442.66752216 Ry
     Harris-Foulkes estimate   =    -442.66752237 Ry
     estimated scf accuracy    <       0.00000049 Ry

     iteration #  3     ecut=    25.00 Ry     beta= 0.70
     Davidson diagonalization with overlap
     ethr =  6.63E-10,  avg # of iterations =  2.0

     total cpu time spent up to now is    24164.9 secs

     total energy              =    -442.66752219 Ry
     Harris-Foulkes estimate   =    -442.66752221 Ry
     estimated scf accuracy    <       0.00000006 Ry

     iteration #  4     ecut=    25.00 Ry     beta= 0.70
     Davidson diagonalization with overlap
     ethr =  1.22E-10,  avg # of iterations =  1.1

     total cpu time spent up to now is    24202.2 secs

     total energy              =    -442.66752218 Ry
     Harris-Foulkes estimate   =    -442.66752219 Ry
     estimated scf accuracy    <       0.00000003 Ry

     iteration #  5     ecut=    25.00 Ry     beta= 0.70
     Davidson diagonalization with overlap
     ethr =  5.07E-11,  avg # of iterations =  2.1

     total cpu time spent up to now is    24253.4 secs

     total energy              =    -442.66752218 Ry
     Harris-Foulkes estimate   =    -442.66752218 Ry
     estimated scf accuracy    <          8.3E-10 Ry

     iteration #  6     ecut=    25.00 Ry     beta= 0.70
     Davidson diagonalization with overlap
     ethr =  1.60E-12,  avg # of iterations =  2.8

     total cpu time spent up to now is    24310.6 secs

     total energy              =    -442.66752218 Ry
     Harris-Foulkes estimate   =    -442.66752218 Ry
     estimated scf accuracy    <          4.1E-11 Ry

     iteration #  7     ecut=    25.00 Ry     beta= 0.70
     Davidson diagonalization with overlap
     ethr =  1.00E-13,  avg # of iterations =  2.2

     total cpu time spent up to now is    24356.9 secs

     total energy              =    -442.66752218 Ry
     Harris-Foulkes estimate   =    -442.66752218 Ry
     estimated scf accuracy    <          3.4E-11 Ry

     iteration #  8     ecut=    25.00 Ry     beta= 0.70
     Davidson diagonalization with overlap
     ethr =  1.00E-13,  avg # of iterations =  1.6

     total cpu time spent up to now is    24395.9 secs

     total energy              =    -442.66752218 Ry
     Harris-Foulkes estimate   =    -442.66752218 Ry
     estimated scf accuracy    <          5.7E-12 Ry

     iteration #  9     ecut=    25.00 Ry     beta= 0.70
     Davidson diagonalization with overlap
     ethr =  1.00E-13,  avg # of iterations =  1.0

     total cpu time spent up to now is    24433.1 secs

     End of self-consistent calculation

     Number of k-points >= 100: set verbosity='high' to print the bands.

     highest occupied level (ev):    26.0473

!    total energy              =    -442.66752218 Ry
     Harris-Foulkes estimate   =    -442.66752218 Ry
     estimated scf accuracy    <          1.1E-13 Ry

     The total energy is the sum of the following terms:

     one-electron contribution =      12.81523768 Ry
     hartree contribution      =      61.94846150 Ry
     xc contribution           =    -125.33676392 Ry
     ewald contribution        =    -392.09445745 Ry

     convergence has been achieved in   9 iterations

     Forces acting on atoms (cartesian axes, Ry/au):

     atom    1 type  1   force =    -0.00068071   -0.00068071    0.00000000
     atom    2 type  1   force =    -0.00015829   -0.00015829    0.00000000
     atom    3 type  2   force =     0.00005586    0.00004987    0.00000000
     atom    4 type  2   force =     0.00004987    0.00005586    0.00000000
     atom    5 type  2   force =     0.00065973    0.00065973    0.00000000
     atom    6 type  2   force =     0.00007354    0.00007354    0.00000000

     Total force =     0.001367     Total SCF correction =     0.000001


     Computing stress (Cartesian axis) and pressure

          total   stress  (Ry/bohr**3)                   (kbar)     P=   -4.03
  -0.00002292   0.00716420   0.00000000         -3.37   1053.89      0.00
   0.00716420  -0.00002292   0.00000000       1053.89     -3.37      0.00
   0.00000000   0.00000000  -0.00003636          0.00      0.00     -5.35


     bfgs converged in  42 scf cycles and  34 bfgs steps
     (criteria: energy <  1.0E-10 Ry, force <  1.0E-09Ry/Bohr, cell <  5.0E-01kbar)

     End of BFGS Geometry Optimization

     Final enthalpy =    -442.6675221793 Ry
Begin final coordinates
     new unit-cell volume =    250.44423 a.u.^3 (    37.11201 Ang^3 )
     density =     13.48655 g/cm^3

CELL_PARAMETERS (alat=  9.11000000)
   0.780849818   0.000000000   0.000000000
   0.000000000   0.780849818   0.000000000
   0.000000000   0.000000000   0.543276451

ATOMIC_POSITIONS (crystal)
Sn       0.046620821   0.046620821   0.000000000
Sn       0.555522044   0.555522044   0.500000000
O        0.703276323   0.115746655   0.500000000
O        0.115746655   0.703276323   0.500000000
O        0.344102499   0.344102499   0.000000000
O        0.732731657   0.732731657   0.000000000
End final coordinates



     A final scf calculation at the relaxed structure.
     The G-vectors are recalculated for the final unit cell
     Results may differ from those at the preceding step.
 
     Parallelization info
     --------------------
     sticks:   dense  smooth     PW     G-vecs:    dense   smooth      PW
     Min         202     202     68                 2125     2125     436
     Max         203     203     69                 2126     2126     437
     Sum         405     405    137                 4251     4251     873
 


     bravais-lattice index     =            6
     lattice parameter (alat)  =       9.1100  a.u.
     unit-cell volume          =     250.4442 (a.u.)^3
     number of atoms/cell      =            6
     number of atomic types    =            2
     number of electrons       =        52.00
     number of Kohn-Sham states=           26
     kinetic-energy cutoff     =      25.0000  Ry
     charge density cutoff     =     100.0000  Ry
     convergence threshold     =      1.0E-12
     mixing beta               =       0.7000
     number of iterations used =            8  plain     mixing
     Exchange-correlation      = PBE ( 1  4  3  4 0 0)

     celldm(1)=   9.110000  celldm(2)=   0.000000  celldm(3)=   0.670000
     celldm(4)=   0.000000  celldm(5)=   0.000000  celldm(6)=   0.000000

     crystal axes: (cart. coord. in units of alat)
               a(1) = (   0.780850   0.000000   0.000000 )  
               a(2) = (   0.000000   0.780850   0.000000 )  
               a(3) = (   0.000000   0.000000   0.543276 )  

     reciprocal axes: (cart. coord. in units 2 pi/alat)
               b(1) = (  1.280656  0.000000  0.000000 )  
               b(2) = (  0.000000  1.280656  0.000000 )  
               b(3) = (  0.000000  0.000000  1.840684 )  


     PseudoPot. # 1 for Sn read from file:
     ../../Pseudo_potentials/Sn_PBE.upf
     MD5 check sum: 78e6386ae56e929f0568ae8bf606a80c
     Pseudo is Norm-conserving + core correction, Zval = 14.0
     Generated using ONCVPSP code by D. R. Hamann
     Using radial grid of 1628 points,  6 beta functions with: 
                l(1) =   0
                l(2) =   0
                l(3) =   1
                l(4) =   1
                l(5) =   2
                l(6) =   2

     PseudoPot. # 2 for O  read from file:
     ../../Pseudo_potentials/O_PBE.upf
     MD5 check sum: 3e3f909f7470e8921608ab6b1f57bbae
     Pseudo is Norm-conserving + core correction, Zval =  6.0
     Generated using ONCVPSP code by D. R. Hamann
     Using radial grid of  936 points,  5 beta functions with: 
                l(1) =   0
                l(2) =   0
                l(3) =   1
                l(4) =   1
                l(5) =   2

     atomic species   valence    mass     pseudopotential
        Sn            14.00   118.71000     Sn( 1.00)
        O              6.00    15.99900     O ( 1.00)

      4 Sym. Ops. (no inversion) found



   Cartesian axes

     site n.     atom                  positions (alat units)
         1           Sn  tau(   1) = (   0.0364039   0.0364039   0.0000000  )
         2           Sn  tau(   2) = (   0.4337793   0.4337793   0.2716382  )
         3           O   tau(   3) = (   0.5491532   0.0903808   0.2716382  )
         4           O   tau(   4) = (   0.0903808   0.5491532   0.2716382  )
         5           O   tau(   5) = (   0.2686924   0.2686924   0.0000000  )
         6           O   tau(   6) = (   0.5721534   0.5721534   0.0000000  )

     number of k points=   657

     Number of k-points >= 100: set verbosity='high' to print them.

     Dense  grid:     4251 G-vectors     FFT dimensions: (  24,  24,  15)

     Estimated max dynamical RAM per process >      76.63 MB

     Estimated total dynamical RAM >     153.26 MB

     Check: negative/imaginary core charge=   -0.003337    0.000000

     Initial potential from superposition of free atoms
     Check: negative starting charge=   -0.004684

     starting charge   51.99690, renormalised to   52.00000

     negative rho (up, down):  4.684E-03 0.000E+00
     Starting wfc are   34 randomized atomic wfcs

     Writing output data file SnO2.save

     total cpu time spent up to now is    24459.7 secs

     Self-consistent Calculation

     iteration #  1     ecut=    25.00 Ry     beta= 0.70
     Davidson diagonalization with overlap
     ethr =  1.00E-06,  avg # of iterations =  7.1

     negative rho (up, down):  1.371E-03 0.000E+00

     total cpu time spent up to now is    24524.8 secs

     total energy              =    -426.28120149 Ry
     Harris-Foulkes estimate   =    -429.53113615 Ry
     estimated scf accuracy    <       4.44677917 Ry

     iteration #  2     ecut=    25.00 Ry     beta= 0.70
     Davidson diagonalization with overlap
     ethr =  8.55E-03,  avg # of iterations =  2.0

     negative rho (up, down):  4.427E-04 0.000E+00

     total cpu time spent up to now is    24553.9 secs

     total energy              =    -427.13861841 Ry
     Harris-Foulkes estimate   =    -427.40986545 Ry
     estimated scf accuracy    <       0.42738364 Ry

     iteration #  3     ecut=    25.00 Ry     beta= 0.70
     Davidson diagonalization with overlap
     ethr =  8.22E-04,  avg # of iterations =  2.8

     negative rho (up, down):  5.199E-05 0.000E+00

     total cpu time spent up to now is    24583.5 secs

     total energy              =    -427.23757278 Ry
     Harris-Foulkes estimate   =    -427.27110624 Ry
     estimated scf accuracy    <       0.06700703 Ry

     iteration #  4     ecut=    25.00 Ry     beta= 0.70
     Davidson diagonalization with overlap
     ethr =  1.29E-04,  avg # of iterations =  2.2

     total cpu time spent up to now is    24610.6 secs

     total energy              =    -427.24946030 Ry
     Harris-Foulkes estimate   =    -427.25343571 Ry
     estimated scf accuracy    <       0.00694541 Ry

     iteration #  5     ecut=    25.00 Ry     beta= 0.70
     Davidson diagonalization with overlap
     ethr =  1.34E-05,  avg # of iterations =  3.0

     total cpu time spent up to now is    24642.1 secs

     total energy              =    -427.25123276 Ry
     Harris-Foulkes estimate   =    -427.25212038 Ry
     estimated scf accuracy    <       0.00167138 Ry

     iteration #  6     ecut=    25.00 Ry     beta= 0.70
     Davidson diagonalization with overlap
     ethr =  3.21E-06,  avg # of iterations =  2.4

     total cpu time spent up to now is    24670.0 secs

     total energy              =    -427.25163074 Ry
     Harris-Foulkes estimate   =    -427.25165314 Ry
     estimated scf accuracy    <       0.00004668 Ry

     iteration #  7     ecut=    25.00 Ry     beta= 0.70
     Davidson diagonalization with overlap
     ethr =  8.98E-08,  avg # of iterations =  2.5

     total cpu time spent up to now is    24698.9 secs

     total energy              =    -427.25164389 Ry
     Harris-Foulkes estimate   =    -427.25164502 Ry
     estimated scf accuracy    <       0.00000306 Ry

     iteration #  8     ecut=    25.00 Ry     beta= 0.70
     Davidson diagonalization with overlap
     ethr =  5.88E-09,  avg # of iterations =  2.8

     total cpu time spent up to now is    24727.0 secs

     total energy              =    -427.25164448 Ry
     Harris-Foulkes estimate   =    -427.25164464 Ry
     estimated scf accuracy    <       0.00000029 Ry

     iteration #  9     ecut=    25.00 Ry     beta= 0.70
     Davidson diagonalization with overlap
     ethr =  5.58E-10,  avg # of iterations =  2.9

     total cpu time spent up to now is    24757.6 secs

     total energy              =    -427.25164456 Ry
     Harris-Foulkes estimate   =    -427.25164456 Ry
     estimated scf accuracy    <       0.00000001 Ry

     iteration # 10     ecut=    25.00 Ry     beta= 0.70
     Davidson diagonalization with overlap
     ethr =  2.31E-11,  avg # of iterations =  2.9

     total cpu time spent up to now is    24785.8 secs

     total energy              =    -427.25164456 Ry
     Harris-Foulkes estimate   =    -427.25164456 Ry
     estimated scf accuracy    <          6.0E-10 Ry

     iteration # 11     ecut=    25.00 Ry     beta= 0.70
     Davidson diagonalization with overlap
     ethr =  1.15E-12,  avg # of iterations =  2.4

     total cpu time spent up to now is    24814.9 secs

     total energy              =    -427.25164456 Ry
     Harris-Foulkes estimate   =    -427.25164456 Ry
     estimated scf accuracy    <          2.7E-11 Ry

     iteration # 12     ecut=    25.00 Ry     beta= 0.70
     Davidson diagonalization with overlap
     ethr =  1.00E-13,  avg # of iterations =  2.0

     total cpu time spent up to now is    24839.7 secs

     End of self-consistent calculation

     Number of k-points >= 100: set verbosity='high' to print the bands.

     highest occupied level (ev):    28.6189

!    total energy              =    -427.25164456 Ry
     Harris-Foulkes estimate   =    -427.25164456 Ry
     estimated scf accuracy    <          6.9E-13 Ry

     The total energy is the sum of the following terms:

     one-electron contribution =      34.91896471 Ry
     hartree contribution      =      50.86565963 Ry
     xc contribution           =    -120.94181144 Ry
     ewald contribution        =    -392.09445746 Ry

     convergence has been achieved in  12 iterations

     Forces acting on atoms (cartesian axes, Ry/au):

     atom    1 type  1   force =     0.08798444    0.08798444    0.00000000
     atom    2 type  1   force =     0.01180143    0.01180143    0.00000000
     atom    3 type  2   force =     0.01012389   -0.08925764    0.00000000
     atom    4 type  2   force =    -0.08925764    0.01012389    0.00000000
     atom    5 type  2   force =    -0.07343395   -0.07343395    0.00000000
     atom    6 type  2   force =     0.05278182    0.05278182    0.00000000

     Total force =     0.219674     Total SCF correction =     0.000003


     Computing stress (Cartesian axis) and pressure

          total   stress  (Ry/bohr**3)                   (kbar)     P=********
  -0.09758456   0.00945366   0.00000000     -14355.18   1390.68      0.00
   0.00945366  -0.09758456   0.00000000       1390.68 -14355.18      0.00
  -0.00000000   0.00000000  -0.09005777         -0.00      0.00 -13247.95


     Writing output data file SnO2.save
 
     init_run     :     27.20s CPU     33.10s WALL (       2 calls)
     electrons    :  23472.96s CPU  24056.23s WALL (      43 calls)
     update_pot   :     21.44s CPU     21.53s WALL (      41 calls)
     forces       :    216.04s CPU    221.09s WALL (      43 calls)
     stress       :    498.46s CPU    502.38s WALL (      43 calls)

     Called by init_run:
     wfcinit      :     26.50s CPU     31.79s WALL (       2 calls)
     potinit      :      0.24s CPU      0.47s WALL (       2 calls)
     hinit0       :      0.44s CPU      0.80s WALL (       2 calls)

     Called by electrons:
     c_bands      :  21291.13s CPU  21793.22s WALL (     446 calls)
     sum_band     :   2177.25s CPU   2257.75s WALL (     446 calls)
     v_of_rho     :      3.84s CPU      3.90s WALL (     480 calls)
     mix_rho      :      0.80s CPU      0.89s WALL (     446 calls)

     Called by c_bands:
     init_us_2    :    288.86s CPU    350.01s WALL (  643860 calls)
     cegterg      :  19371.82s CPU  19851.41s WALL (  293022 calls)

     Called by sum_band:

     Called by *egterg:
     h_psi        :  14004.42s CPU  14597.77s WALL ( 1019626 calls)
     g_psi        :    136.12s CPU    139.43s WALL (  725290 calls)
     cdiaghg      :   2379.73s CPU   2342.68s WALL (  985462 calls)

     Called by h_psi:
     h_psi:pot    :  13954.59s CPU  14526.97s WALL ( 1019626 calls)
     h_psi:calbec :   1227.99s CPU   1171.96s WALL ( 1019626 calls)
     vloc_psi     :  11996.65s CPU  12178.24s WALL ( 1019626 calls)
     add_vuspsi   :    727.91s CPU   1170.43s WALL ( 1019626 calls)

     General routines
     calbec       :   1456.11s CPU   1353.14s WALL ( 1160881 calls)
     fft          :      2.18s CPU      2.45s WALL (    5925 calls)
     ffts         :      0.18s CPU      0.18s WALL (     446 calls)
     fftw         :  13837.82s CPU  13228.33s WALL (52446970 calls)
 
     Parallel routines
     fft_scatt_xy :    188.53s CPU    986.53s WALL (52453341 calls)
     fft_scatt_yz :  11700.72s CPU   2807.08s WALL (52453341 calls)
 
     PWSCF        :     6h44m CPU        6h54m WALL

 
   This run was terminated on:   6:56: 0   9Apr2018            

=------------------------------------------------------------------------------=
   JOB DONE.
=------------------------------------------------------------------------------=
