
     Program PWSCF v.6.2.2 starts on 21Apr2018 at 12:31:27 

     This program is part of the open-source Quantum ESPRESSO suite
     for quantum simulation of materials; please cite
         "P. Giannozzi et al., J. Phys.:Condens. Matter 21 395502 (2009);
         "P. Giannozzi et al., J. Phys.:Condens. Matter 29 465901 (2017);
          URL http://www.quantum-espresso.org", 
     in publications or presentations arising from this work. More details at
     http://www.quantum-espresso.org/quote

     Parallel version (MPI), running on     2 processors

     MPI processes distributed on     1 nodes
     R & G space division:  proc/nbgrp/npool/nimage =       2
     Reading input from Conv_acell-kp.in

     Current dimensions of program PWSCF are:
     Max number of different atomic species (ntypx) = 10
     Max number of k-points (npk) =  40000
     Max angular momentum in pseudopotentials (lmaxx) =  3

     Subspace diagonalization in iterative solution of the eigenvalue problem:
     a serial algorithm will be used

 
     Parallelization info
     --------------------
     sticks:   dense  smooth     PW     G-vecs:    dense   smooth      PW
     Min         332     332    110                 4313     4313     791
     Max         333     333    111                 4314     4314     792
     Sum         665     665    221                 8627     8627    1583
 


     bravais-lattice index     =            6
     lattice parameter (alat)  =       9.1100  a.u.
     unit-cell volume          =     506.5589 (a.u.)^3
     number of atoms/cell      =            6
     number of atomic types    =            2
     number of electrons       =        52.00
     number of Kohn-Sham states=           26
     kinetic-energy cutoff     =      25.0000  Ry
     charge density cutoff     =     100.0000  Ry
     convergence threshold     =      1.0E-12
     mixing beta               =       0.7000
     number of iterations used =            8  plain     mixing
     Exchange-correlation      = PBE ( 1  4  3  4 0 0)
     nstep                     =           50


     celldm(1)=   9.110000  celldm(2)=   0.000000  celldm(3)=   0.670000
     celldm(4)=   0.000000  celldm(5)=   0.000000  celldm(6)=   0.000000

     crystal axes: (cart. coord. in units of alat)
               a(1) = (   1.000000   0.000000   0.000000 )  
               a(2) = (   0.000000   1.000000   0.000000 )  
               a(3) = (   0.000000   0.000000   0.670000 )  

     reciprocal axes: (cart. coord. in units 2 pi/alat)
               b(1) = (  1.000000  0.000000  0.000000 )  
               b(2) = (  0.000000  1.000000  0.000000 )  
               b(3) = (  0.000000  0.000000  1.492537 )  


     PseudoPot. # 1 for Sn read from file:
     ../../Pseudo_potentials/Sn_PBE.upf
     MD5 check sum: 78e6386ae56e929f0568ae8bf606a80c
     Pseudo is Norm-conserving + core correction, Zval = 14.0
     Generated using ONCVPSP code by D. R. Hamann
     Using radial grid of 1628 points,  6 beta functions with: 
                l(1) =   0
                l(2) =   0
                l(3) =   1
                l(4) =   1
                l(5) =   2
                l(6) =   2

     PseudoPot. # 2 for O  read from file:
     ../../Pseudo_potentials/O_PBE.upf
     MD5 check sum: 3e3f909f7470e8921608ab6b1f57bbae
     Pseudo is Norm-conserving + core correction, Zval =  6.0
     Generated using ONCVPSP code by D. R. Hamann
     Using radial grid of  936 points,  5 beta functions with: 
                l(1) =   0
                l(2) =   0
                l(3) =   1
                l(4) =   1
                l(5) =   2

     atomic species   valence    mass     pseudopotential
        Sn            14.00   118.71000     Sn( 1.00)
        O              6.00    15.99900     O ( 1.00)

      4 Sym. Ops. (no inversion) found



   Cartesian axes

     site n.     atom                  positions (alat units)
         1           Sn  tau(   1) = (   0.0000000   0.0000000   0.0000000  )
         2           Sn  tau(   2) = (   0.5000000   0.5000000   0.3350000  )
         3           O   tau(   3) = (   0.8060000   0.1930000   0.3350000  )
         4           O   tau(   4) = (   0.1930000   0.8060000   0.3350000  )
         5           O   tau(   5) = (   0.3060000   0.3060000   0.0000000  )
         6           O   tau(   6) = (   0.6930000   0.6930000   0.0000000  )

     number of k points=    52
                       cart. coord. in units 2pi/alat
        k(    1) = (   0.0000000   0.0000000   0.0000000), wk =   0.0092593
        k(    2) = (   0.0000000   0.0000000   0.2487562), wk =   0.0185185
        k(    3) = (   0.0000000   0.0000000   0.4975124), wk =   0.0185185
        k(    4) = (   0.0000000   0.0000000  -0.7462687), wk =   0.0092593
        k(    5) = (   0.0000000   0.1666667   0.0000000), wk =   0.0370370
        k(    6) = (   0.0000000   0.1666667   0.2487562), wk =   0.0740741
        k(    7) = (   0.0000000   0.1666667   0.4975124), wk =   0.0740741
        k(    8) = (   0.0000000   0.1666667  -0.7462687), wk =   0.0370370
        k(    9) = (   0.0000000   0.3333333   0.0000000), wk =   0.0370370
        k(   10) = (   0.0000000   0.3333333   0.2487562), wk =   0.0740741
        k(   11) = (   0.0000000   0.3333333   0.4975124), wk =   0.0740741
        k(   12) = (   0.0000000   0.3333333  -0.7462687), wk =   0.0370370
        k(   13) = (   0.0000000  -0.5000000   0.0000000), wk =   0.0185185
        k(   14) = (   0.0000000  -0.5000000   0.2487562), wk =   0.0370370
        k(   15) = (   0.0000000  -0.5000000   0.4975124), wk =   0.0370370
        k(   16) = (   0.0000000  -0.5000000  -0.7462687), wk =   0.0185185
        k(   17) = (   0.1666667   0.1666667   0.0000000), wk =   0.0185185
        k(   18) = (   0.1666667   0.1666667   0.2487562), wk =   0.0370370
        k(   19) = (   0.1666667   0.1666667   0.4975124), wk =   0.0370370
        k(   20) = (   0.1666667   0.1666667  -0.7462687), wk =   0.0185185
        k(   21) = (   0.1666667   0.3333333   0.0000000), wk =   0.0370370
        k(   22) = (   0.1666667   0.3333333   0.2487562), wk =   0.0740741
        k(   23) = (   0.1666667   0.3333333   0.4975124), wk =   0.0740741
        k(   24) = (   0.1666667   0.3333333  -0.7462687), wk =   0.0370370
        k(   25) = (   0.1666667  -0.5000000   0.0000000), wk =   0.0370370
        k(   26) = (   0.1666667  -0.5000000   0.2487562), wk =   0.0740741
        k(   27) = (   0.1666667  -0.5000000   0.4975124), wk =   0.0740741
        k(   28) = (   0.1666667  -0.5000000  -0.7462687), wk =   0.0370370
        k(   29) = (   0.3333333   0.3333333   0.0000000), wk =   0.0185185
        k(   30) = (   0.3333333   0.3333333   0.2487562), wk =   0.0370370
        k(   31) = (   0.3333333   0.3333333   0.4975124), wk =   0.0370370
        k(   32) = (   0.3333333   0.3333333  -0.7462687), wk =   0.0185185
        k(   33) = (   0.3333333  -0.5000000   0.0000000), wk =   0.0370370
        k(   34) = (   0.3333333  -0.5000000   0.2487562), wk =   0.0740741
        k(   35) = (   0.3333333  -0.5000000   0.4975124), wk =   0.0740741
        k(   36) = (   0.3333333  -0.5000000  -0.7462687), wk =   0.0370370
        k(   37) = (  -0.5000000  -0.5000000   0.0000000), wk =   0.0092593
        k(   38) = (  -0.5000000  -0.5000000   0.2487562), wk =   0.0185185
        k(   39) = (  -0.5000000  -0.5000000   0.4975124), wk =   0.0185185
        k(   40) = (  -0.5000000  -0.5000000  -0.7462687), wk =   0.0092593
        k(   41) = (   0.1666667  -0.1666667   0.0000000), wk =   0.0185185
        k(   42) = (   0.1666667  -0.1666667   0.2487562), wk =   0.0370370
        k(   43) = (   0.1666667  -0.1666667   0.4975124), wk =   0.0370370
        k(   44) = (   0.1666667  -0.1666667  -0.7462687), wk =   0.0185185
        k(   45) = (   0.3333333  -0.1666667   0.0000000), wk =   0.0370370
        k(   46) = (   0.3333333  -0.1666667   0.2487562), wk =   0.0740741
        k(   47) = (   0.3333333  -0.1666667   0.4975124), wk =   0.0740741
        k(   48) = (   0.3333333  -0.1666667  -0.7462687), wk =   0.0370370
        k(   49) = (   0.3333333  -0.3333333   0.0000000), wk =   0.0185185
        k(   50) = (   0.3333333  -0.3333333   0.2487562), wk =   0.0370370
        k(   51) = (   0.3333333  -0.3333333   0.4975124), wk =   0.0370370
        k(   52) = (   0.3333333  -0.3333333  -0.7462687), wk =   0.0185185

     Dense  grid:     8627 G-vectors     FFT dimensions: (  30,  30,  20)

     Estimated max dynamical RAM per process >      21.37 MB

     Estimated total dynamical RAM >      42.74 MB

     Check: negative/imaginary core charge=   -0.002394    0.000000

     Initial potential from superposition of free atoms
     Check: negative starting charge=   -0.009566

     starting charge   51.99690, renormalised to   52.00000

     negative rho (up, down):  9.566E-03 0.000E+00
     Starting wfc are   34 randomized atomic wfcs

     total cpu time spent up to now is        1.4 secs

     Self-consistent Calculation

     iteration #  1     ecut=    25.00 Ry     beta= 0.70
     Davidson diagonalization with overlap
     ethr =  1.00E-02,  avg # of iterations =  2.0

     negative rho (up, down):  2.854E-03 0.000E+00

     total cpu time spent up to now is        3.8 secs

     total energy              =    -429.64633930 Ry
     Harris-Foulkes estimate   =    -432.67143782 Ry
     estimated scf accuracy    <       4.16491410 Ry

     iteration #  2     ecut=    25.00 Ry     beta= 0.70
     Davidson diagonalization with overlap
     ethr =  8.01E-03,  avg # of iterations =  2.0

     negative rho (up, down):  8.843E-04 0.000E+00

     total cpu time spent up to now is        6.0 secs

     total energy              =    -430.42028612 Ry
     Harris-Foulkes estimate   =    -430.56162752 Ry
     estimated scf accuracy    <       0.25012126 Ry

     iteration #  3     ecut=    25.00 Ry     beta= 0.70
     Davidson diagonalization with overlap
     ethr =  4.81E-04,  avg # of iterations =  2.9

     negative rho (up, down):  1.611E-04 0.000E+00

     total cpu time spent up to now is        8.3 secs

     total energy              =    -430.46679003 Ry
     Harris-Foulkes estimate   =    -430.48068707 Ry
     estimated scf accuracy    <       0.02978196 Ry

     iteration #  4     ecut=    25.00 Ry     beta= 0.70
     Davidson diagonalization with overlap
     ethr =  5.73E-05,  avg # of iterations =  2.9

     total cpu time spent up to now is       10.7 secs

     total energy              =    -430.47219369 Ry
     Harris-Foulkes estimate   =    -430.47401976 Ry
     estimated scf accuracy    <       0.00356985 Ry

     iteration #  5     ecut=    25.00 Ry     beta= 0.70
     Davidson diagonalization with overlap
     ethr =  6.87E-06,  avg # of iterations =  3.0

     total cpu time spent up to now is       13.1 secs

     total energy              =    -430.47302796 Ry
     Harris-Foulkes estimate   =    -430.47311257 Ry
     estimated scf accuracy    <       0.00017342 Ry

     iteration #  6     ecut=    25.00 Ry     beta= 0.70
     Davidson diagonalization with overlap
     ethr =  3.33E-07,  avg # of iterations =  3.1

     total cpu time spent up to now is       15.5 secs

     total energy              =    -430.47307124 Ry
     Harris-Foulkes estimate   =    -430.47307668 Ry
     estimated scf accuracy    <       0.00001279 Ry

     iteration #  7     ecut=    25.00 Ry     beta= 0.70
     Davidson diagonalization with overlap
     ethr =  2.46E-08,  avg # of iterations =  3.1

     total cpu time spent up to now is       17.8 secs

     total energy              =    -430.47307249 Ry
     Harris-Foulkes estimate   =    -430.47307409 Ry
     estimated scf accuracy    <       0.00000380 Ry

     iteration #  8     ecut=    25.00 Ry     beta= 0.70
     Davidson diagonalization with overlap
     ethr =  7.30E-09,  avg # of iterations =  3.0

     total cpu time spent up to now is       20.0 secs

     total energy              =    -430.47307309 Ry
     Harris-Foulkes estimate   =    -430.47307311 Ry
     estimated scf accuracy    <       0.00000003 Ry

     iteration #  9     ecut=    25.00 Ry     beta= 0.70
     Davidson diagonalization with overlap
     ethr =  6.65E-11,  avg # of iterations =  3.2

     total cpu time spent up to now is       22.9 secs

     total energy              =    -430.47307311 Ry
     Harris-Foulkes estimate   =    -430.47307311 Ry
     estimated scf accuracy    <       0.00000001 Ry

     iteration # 10     ecut=    25.00 Ry     beta= 0.70
     Davidson diagonalization with overlap
     ethr =  2.02E-11,  avg # of iterations =  3.1

     total cpu time spent up to now is       25.2 secs

     total energy              =    -430.47307311 Ry
     Harris-Foulkes estimate   =    -430.47307311 Ry
     estimated scf accuracy    <          3.2E-10 Ry

     iteration # 11     ecut=    25.00 Ry     beta= 0.70
     Davidson diagonalization with overlap
     ethr =  6.22E-13,  avg # of iterations =  3.5

     total cpu time spent up to now is       27.9 secs

     total energy              =    -430.47307311 Ry
     Harris-Foulkes estimate   =    -430.47307311 Ry
     estimated scf accuracy    <          9.6E-11 Ry

     iteration # 12     ecut=    25.00 Ry     beta= 0.70
     Davidson diagonalization with overlap
     ethr =  1.85E-13,  avg # of iterations =  3.1

     total cpu time spent up to now is       30.4 secs

     total energy              =    -430.47307311 Ry
     Harris-Foulkes estimate   =    -430.47307311 Ry
     estimated scf accuracy    <          2.0E-11 Ry

     iteration # 13     ecut=    25.00 Ry     beta= 0.70
     Davidson diagonalization with overlap
     ethr =  1.00E-13,  avg # of iterations =  2.3

     total cpu time spent up to now is       32.3 secs

     End of self-consistent calculation

          k = 0.0000 0.0000 0.0000 (  1065 PWs)   bands (ev):

   -12.1542 -11.5233 -10.2241 -10.2241 -10.2064 -10.1125 -10.0220  -9.9152
    -9.9140  -9.7386  -9.2057  -9.0970  -9.0970  -7.1420   0.9974   5.6157
     5.6158   5.8882   6.9830   7.7944   7.9678   9.0568   9.2054   9.2054
     9.2120   9.2120

          k = 0.0000 0.0000 0.2488 (  1074 PWs)   bands (ev):

   -12.0463 -11.3112 -10.9909 -10.9908 -10.1105 -10.0654 -10.0026  -9.9381
    -9.9380  -9.3920  -9.3254  -9.0306  -9.0306  -7.4733   0.9861   5.5531
     5.5534   5.8577   5.8579   7.1271   7.7388   7.9285   7.9285   9.3653
     9.3653   9.6192

          k = 0.0000 0.0000 0.4975 (  1070 PWs)   bands (ev):

   -11.7329 -11.4302 -11.4300 -10.9234 -10.2353 -10.1475  -9.7013  -9.7012
    -9.4984  -9.4225  -8.9823  -8.3304  -8.0284  -8.0284   1.2269   3.4361
     5.3918   5.9563   5.9564   6.8501   6.8815   6.8816   7.5971   9.1082
     9.1571   9.1573

          k = 0.0000 0.0000-0.7463 (  1058 PWs)   bands (ev):

   -11.5072 -11.5070 -10.9854 -10.9853  -9.6117  -9.6116  -9.4072  -9.4071
    -9.3475  -9.3474  -8.7898  -8.7897  -7.5900  -7.5900   1.9344   1.9345
     5.4790   5.4791   5.9610   5.9610   7.3053   7.3053   8.3871   8.3872
     8.8397   8.8397

          k = 0.0000 0.1667 0.0000 (  1065 PWs)   bands (ev):

   -11.9697 -11.4578 -10.4953 -10.2683 -10.2308  -9.9221  -9.8500  -9.8281
    -9.8156  -9.5750  -9.4705  -9.4552  -9.1951  -7.3504   1.1728   4.9711
     5.8089   5.9742   7.0617   7.6778   7.9011   8.6979   9.2203   9.2252
     9.2533   9.7062

          k = 0.0000 0.1667 0.2488 (  1067 PWs)   bands (ev):

   -11.8541 -11.2840 -11.0188 -10.9823 -10.0103  -9.9409  -9.8774  -9.8271
    -9.7287  -9.6680  -9.1064  -8.9058  -8.7291  -7.5579   1.1985   4.8803
     5.2816   5.8117   6.4679   7.0891   7.5614   8.0891   8.3432   9.2602
     9.2623   9.6531

          k = 0.0000 0.1667 0.4975 (  1073 PWs)   bands (ev):

   -11.7405 -11.5889 -11.2444 -10.8305 -10.1042 -10.0020  -9.8692  -9.7240
    -9.6272  -9.5929  -9.4651  -8.6299  -7.9521  -7.7626   1.3627   3.3090
     4.8875   5.5731   5.9835   6.1774   7.3846   7.8905   7.9272   9.0305
     9.1050   9.1155

          k = 0.0000 0.1667-0.7463 (  1066 PWs)   bands (ev):

   -11.6822 -11.6821 -10.9086 -10.9085  -9.8415  -9.8414  -9.5958  -9.5958
    -9.4569  -9.4569  -9.0922  -9.0921  -7.4780  -7.4780   1.9930   1.9931
     5.0355   5.0356   5.6448   5.6448   7.9919   7.9919   8.4549   8.4550
     8.8442   8.8442

          k = 0.0000 0.3333 0.0000 (  1070 PWs)   bands (ev):

   -11.8164 -11.4156 -10.8205 -10.4640 -10.3933 -10.1561 -10.0135  -9.9357
    -9.7457  -9.6816  -9.6583  -9.5635  -8.7009  -7.6465   1.7384   3.7534
     6.1682   6.2454   7.1631   7.2450   7.4355   8.5731   9.1478   9.1955
     9.2251   9.4749

          k = 0.0000 0.3333 0.2488 (  1069 PWs)   bands (ev):

   -11.6774 -11.3280 -11.1574 -10.9236 -10.1051 -10.0384  -9.8834  -9.8791
    -9.7046  -9.6876  -9.4284  -9.1764  -8.4096  -7.6878   1.7518   3.7029
     5.1351   5.5086   6.9769   7.4155   7.5077   8.4608   8.4845   9.0847
     9.1739   9.3859

          k = 0.0000 0.3333 0.4975 (  1069 PWs)   bands (ev):

   -11.8147 -11.7045 -10.9136 -10.6211 -10.0385  -9.8965  -9.8616  -9.6581
    -9.6410  -9.5346  -9.5062  -9.0119  -7.7517  -7.5231   1.7859   2.9918
     4.4277   4.6638   6.0076   6.0202   8.0621   8.2972   8.5377   8.9601
     9.0607   9.5751

          k = 0.0000 0.3333-0.7463 (  1076 PWs)   bands (ev):

   -11.8908 -11.8906 -10.6566 -10.6565 -10.0450 -10.0449  -9.8455  -9.8454
    -9.6508  -9.6507  -9.5810  -9.5810  -7.3814  -7.3814   2.1215   2.1216
     4.3044   4.3044   5.4661   5.4662   8.3142   8.3142   8.7209   8.7210
     9.2650   9.2651

          k = 0.0000-0.5000 0.0000 (  1078 PWs)   bands (ev):

   -11.6048 -11.6030 -10.7550 -10.7546 -10.4289 -10.4286 -10.0916 -10.0915
   -10.0638 -10.0632  -9.6994  -9.6984  -8.1042  -8.0994   2.6011   2.6104
     6.5851   6.5975   6.6192   6.6222   7.9908   7.9938   9.1092   9.1136
     9.3235   9.3281

          k = 0.0000-0.5000 0.2488 (  1056 PWs)   bands (ev):

   -11.4754 -11.4717 -10.9907 -10.9820  -9.8516  -9.8508  -9.5410  -9.5408
    -9.4677  -9.4649  -9.1429  -9.1385  -7.9229  -7.9216   2.6299   2.6366
     5.2624   5.2688   7.2293   7.2296   8.1504   8.1527   8.8634   8.8653
     9.2617   9.2660

          k = 0.0000-0.5000 0.4975 (  1086 PWs)   bands (ev):

   -11.9377 -11.9359 -10.8527 -10.8408 -10.2289 -10.2263 -10.0029 -10.0007
    -9.8084  -9.7996  -9.7679  -9.7669  -7.7188  -7.7153   2.3751   2.3764
     4.2507   4.2560   5.9211   5.9293   8.2263   8.2298   8.8794   8.8815
     9.3541   9.3557

          k = 0.0000-0.5000-0.7463 (  1096 PWs)   bands (ev):

   -12.1866 -12.1865 -10.7210 -10.7209 -10.3635 -10.3635 -10.2296 -10.2296
   -10.0209 -10.0208  -9.8743  -9.8742  -7.5378  -7.5378   2.1853   2.1854
     3.9362   3.9362   5.3459   5.3460   8.2978   8.2978   8.7423   8.7423
     9.5907   9.5908

          k = 0.1667 0.1667 0.0000 (  1064 PWs)   bands (ev):

   -11.9671 -11.4171 -10.6747 -10.1339 -10.0557  -9.9751  -9.9555  -9.7933
    -9.6684  -9.6246  -9.5186  -9.4485  -9.0677  -7.4683   1.3832   4.7632
     5.6903   6.0728   7.1467   7.4213   7.6346   8.6834   9.1859   9.1944
     9.2167   9.6780

          k = 0.1667 0.1667 0.2488 (  1064 PWs)   bands (ev):

   -11.7769 -11.2145 -11.0642 -10.9993 -10.0456  -9.9687  -9.8582  -9.7524
    -9.6459  -9.3469  -9.2906  -8.9262  -8.6168  -7.5624   1.3771   4.3475
     5.5961   5.9784   6.2358   6.9841   7.5358   8.1217   8.5862   9.2497
     9.3310   9.6617

          k = 0.1667 0.1667 0.4975 (  1069 PWs)   bands (ev):

   -11.7853 -11.4506 -11.3154 -10.6533 -10.1810  -9.8417  -9.8097  -9.7182
    -9.6873  -9.5951  -9.2823  -8.6391  -7.9649  -7.5333   1.4761   3.1355
     4.5853   5.7439   5.8474   6.6906   6.7542   8.0397   8.3769   9.0790
     9.1634   9.2026

          k = 0.1667 0.1667-0.7463 (  1068 PWs)   bands (ev):

   -11.8832 -11.4884 -11.1967 -10.5505  -9.8360  -9.8225  -9.6787  -9.6644
    -9.5858  -9.5407  -9.3339  -9.0220  -7.4707  -7.3858   1.7986   2.2330
     4.4427   5.0852   5.2483   6.4918   7.3146   8.4786   8.5418   8.7249
     8.8617   8.8963

          k = 0.1667 0.3333 0.0000 (  1067 PWs)   bands (ev):

   -11.8796 -11.4602 -10.8741 -10.3110 -10.3025  -9.9596  -9.9088  -9.7947
    -9.7316  -9.6507  -9.6004  -9.5184  -8.6943  -7.7976   1.9468   3.8472
     5.9812   6.3047   7.0736   7.0948   7.4596   8.4345   9.1351   9.1903
     9.2161   9.4360

          k = 0.1667 0.3333 0.2488 (  1066 PWs)   bands (ev):

   -11.7223 -11.3575 -11.1083 -10.9536 -10.0014  -9.9170  -9.8115  -9.7492
    -9.7292  -9.6538  -9.3338  -9.0477  -8.3809  -7.7755   1.8930   3.5518
     5.4003   5.5828   6.8326   7.1276   7.4213   8.4062   8.5968   9.0756
     9.2343   9.5479

          k = 0.1667 0.3333 0.4975 (  1072 PWs)   bands (ev):

   -11.8087 -11.6448 -11.1572 -10.6843 -10.1049  -9.9395  -9.9230  -9.7703
    -9.7322  -9.5318  -9.4386  -8.9663  -7.8524  -7.5398   1.7578   2.6928
     4.4725   5.2073   5.7358   6.1614   7.7968   8.3547   8.6227   9.0046
     9.1703   9.4789

          k = 0.1667 0.3333-0.7463 (  1076 PWs)   bands (ev):

   -12.0325 -11.7943 -10.8982 -10.3327 -10.2345 -10.0517  -9.9916  -9.9735
    -9.6506  -9.6465  -9.4678  -9.1630  -7.5339  -7.3808   1.7338   2.1644
     4.1780   4.7990   5.1688   6.0081   8.0780   8.5900   8.6535   8.8020
     8.9085   9.4811

          k = 0.1667-0.5000 0.0000 (  1068 PWs)   bands (ev):

   -11.6561 -11.6554 -10.6459 -10.6443 -10.2173 -10.2169  -9.8695  -9.8694
    -9.6819  -9.6803  -9.5651  -9.5647  -8.1910  -8.1878   2.8068   2.8154
     6.4582   6.4692   6.6991   6.7017   7.9578   7.9607   9.1619   9.1655
     9.3185   9.3207

          k = 0.1667-0.5000 0.2488 (  1060 PWs)   bands (ev):

   -11.5356 -11.5335 -10.9761 -10.9697  -9.8193  -9.8185  -9.7861  -9.7853
    -9.5763  -9.5760  -9.0156  -9.0114  -8.0436  -8.0434   2.6742   2.6799
     5.4058   5.4113   7.0718   7.0727   8.0145   8.0173   8.8400   8.8413
     9.3525   9.3548

          k = 0.1667-0.5000 0.4975 (  1076 PWs)   bands (ev):

   -11.8344 -11.8327 -10.9617 -10.9535 -10.0652 -10.0645  -9.7635  -9.7610
    -9.6289  -9.6288  -9.5253  -9.5184  -7.7058  -7.7028   2.1893   2.1902
     4.7094   4.7145   5.8161   5.8241   8.3731   8.3762   8.9443   8.9463
     9.2378   9.2391

          k = 0.1667-0.5000-0.7463 (  1080 PWs)   bands (ev):

   -11.9877 -11.9875 -10.6466 -10.6464 -10.0593 -10.0592 -10.0295 -10.0294
    -9.8210  -9.8209  -9.4387  -9.4386  -7.4852  -7.4852   1.8750   1.8751
     4.4635   4.4635   5.3973   5.3974   8.4596   8.4596   8.9282   8.9283
     9.3270   9.3271

          k = 0.3333 0.3333 0.0000 (  1068 PWs)   bands (ev):

   -11.8896 -11.6263 -10.6385 -10.3161 -10.2332 -10.1169 -10.0019  -9.7301
    -9.6338  -9.6242  -9.5895  -9.5064  -8.7382  -7.9771   2.5050   3.8534
     5.7175   6.4426   6.6191   6.9178   7.5742   8.1950   9.1013   9.1060
     9.1515   9.2652

          k = 0.3333 0.3333 0.2488 (  1063 PWs)   bands (ev):

   -11.6476 -11.4422 -11.0214 -10.9918  -9.9116  -9.8871  -9.7028  -9.6461
    -9.6148  -9.6070  -9.2884  -8.8414  -8.5290  -7.8859   2.2902   3.2537
     5.5723   6.0465   6.5621   6.8804   7.1793   8.3054   8.6493   9.1514
     9.1882   9.5280

          k = 0.3333 0.3333 0.4975 (  1075 PWs)   bands (ev):

   -11.8776 -11.5054 -11.4354 -10.9539 -10.1706 -10.0110  -9.8455  -9.7978
    -9.7891  -9.5471  -9.5014  -8.8346  -7.9048  -7.7216   1.7556   2.2257
     5.0243   5.4358   5.5100   6.7097   7.1232   8.5801   8.6373   9.1029
     9.1848   9.3136

          k = 0.3333 0.3333-0.7463 (  1084 PWs)   bands (ev):

   -12.1419 -11.6884 -11.3046 -10.6835 -10.3073 -10.1813  -9.9572  -9.8864
    -9.8831  -9.7985  -9.6679  -9.1112  -7.6720  -7.5861   1.4640   1.7590
     4.8240   4.8811   4.8911   7.0242   7.2469   8.6943   8.7317   8.8792
     9.0412   9.2926

          k = 0.3333-0.5000 0.0000 (  1066 PWs)   bands (ev):

   -11.7584 -11.7576 -10.3337 -10.3313 -10.0842 -10.0840  -9.8123  -9.8116
    -9.7186  -9.7185  -9.6704  -9.6686  -8.2954  -8.2936   3.2612   3.2671
     6.0586   6.0661   6.6974   6.6985   7.8189   7.8204   9.1627   9.1634
     9.1788   9.1801

          k = 0.3333-0.5000 0.2488 (  1072 PWs)   bands (ev):

   -11.7141 -11.7139 -11.0154 -11.0136 -10.1226 -10.1218  -9.7858  -9.7847
    -9.6480  -9.6470  -9.1954  -9.1900  -8.3211  -8.3190   2.7949   2.7983
     5.7530   5.7551   6.7876   6.7928   7.5225   7.5268   8.8962   8.8971
     9.3494   9.3519

          k = 0.3333-0.5000 0.4975 (  1066 PWs)   bands (ev):

   -11.6542 -11.6517 -11.0643 -11.0590  -9.9772  -9.9769  -9.6844  -9.6841
    -9.6002  -9.5997  -8.8693  -8.8641  -7.8712  -7.8683   1.9084   1.9085
     5.3806   5.3830   6.0081   6.0118   8.0476   8.0482   8.9750   8.9777
     9.2739   9.2765

          k = 0.3333-0.5000-0.7463 (  1068 PWs)   bands (ev):

   -11.8513 -11.8511 -10.8130 -10.8129  -9.9822  -9.9821  -9.7553  -9.7553
    -9.7145  -9.7145  -8.8765  -8.8763  -7.5918  -7.5918   1.4651   1.4652
     4.7778   4.7778   6.0542   6.0542   8.5190   8.5190   8.8881   8.8882
     9.1616   9.1616

          k =-0.5000-0.5000 0.0000 (  1084 PWs)   bands (ev):

   -11.8390 -11.8389 -10.7718 -10.7718 -10.1999 -10.1999 -10.0830 -10.0814
   -10.0324 -10.0320  -9.9988  -9.9977  -8.3498  -8.3497   3.5448   3.5449
     5.8193   5.8194   6.6641   6.6643   7.7016   7.7016   9.0163   9.0163
     9.0935   9.0936

          k =-0.5000-0.5000 0.2488 (  1064 PWs)   bands (ev):

   -11.6722 -11.6721 -10.8891 -10.8890 -10.0629 -10.0628  -9.6333  -9.6333
    -9.5918  -9.5918  -8.6608  -8.6601  -8.6162  -8.6156   2.8869   2.8869
     6.0338   6.0338   6.8987   6.8997   7.0022   7.0032   9.1564   9.1565
     9.2184   9.2186

          k =-0.5000-0.5000 0.4975 (  1080 PWs)   bands (ev):

   -11.6432 -11.6430 -11.4185 -11.4184 -10.0667 -10.0666  -9.9610  -9.9609
    -9.9209  -9.9209  -8.9255  -8.9254  -8.0748  -8.0747   1.7894   1.7894
     5.3321   5.3322   6.7403   6.7403   7.2070   7.2070   9.1039   9.1071
     9.1094   9.1126

          k =-0.5000-0.5000-0.7463 (  1072 PWs)   bands (ev):

   -11.6948 -11.6946 -11.1541 -11.1540 -10.0333 -10.0332  -9.7684  -9.7683
    -9.6725  -9.6724  -9.0151  -9.0149  -7.6477  -7.6477   1.3098   1.3099
     4.7548   4.7548   7.2444   7.2444   7.2740   7.2740   8.8982   8.8983
     9.2170   9.2171

          k = 0.1667-0.1667 0.0000 (  1064 PWs)   bands (ev):

   -11.9671 -11.4171 -10.6746 -10.1338 -10.0567  -9.9752  -9.9545  -9.7933
    -9.6684  -9.6247  -9.5186  -9.4485  -9.0678  -7.4683   1.3832   4.7632
     5.6903   6.0728   7.1467   7.4213   7.6346   8.6834   9.1858   9.1944
     9.2167   9.6781

          k = 0.1667-0.1667 0.2488 (  1064 PWs)   bands (ev):

   -11.7769 -11.2143 -11.0644 -10.9993 -10.0456  -9.9687  -9.8582  -9.7523
    -9.6459  -9.3469  -9.2906  -8.9262  -8.6168  -7.5624   1.3771   4.3475
     5.5962   5.9783   6.2358   6.9841   7.5358   8.1217   8.5862   9.2497
     9.3310   9.6617

          k = 0.1667-0.1667 0.4975 (  1069 PWs)   bands (ev):

   -11.7852 -11.4508 -11.3154 -10.6532 -10.1811  -9.8417  -9.8096  -9.7182
    -9.6873  -9.5950  -9.2824  -8.6390  -7.9649  -7.5333   1.4762   3.1354
     4.5853   5.7439   5.8474   6.6905   6.7542   8.0396   8.3769   9.0791
     9.1631   9.2029

          k = 0.1667-0.1667-0.7463 (  1068 PWs)   bands (ev):

   -11.8831 -11.4886 -11.1968 -10.5503  -9.8360  -9.8225  -9.6788  -9.6643
    -9.5860  -9.5406  -9.3338  -9.0218  -7.4706  -7.3859   1.7987   2.2329
     4.4427   5.0852   5.2484   6.4917   7.3146   8.4786   8.5418   8.7249
     8.8615   8.8965

          k = 0.3333-0.1667 0.0000 (  1067 PWs)   bands (ev):

   -11.8796 -11.4601 -10.8741 -10.3112 -10.3025  -9.9597  -9.9086  -9.7947
    -9.7317  -9.6507  -9.6004  -9.5184  -8.6943  -7.7976   1.9468   3.8472
     5.9812   6.3047   7.0736   7.0949   7.4596   8.4345   9.1351   9.1902
     9.2161   9.4360

          k = 0.3333-0.1667 0.2488 (  1066 PWs)   bands (ev):

   -11.7224 -11.3574 -11.1084 -10.9537 -10.0014  -9.9171  -9.8114  -9.7493
    -9.7291  -9.6538  -9.3338  -9.0477  -8.3808  -7.7755   1.8930   3.5518
     5.4003   5.5828   6.8325   7.1277   7.4212   8.4061   8.5968   9.0756
     9.2343   9.5479

          k = 0.3333-0.1667 0.4975 (  1072 PWs)   bands (ev):

   -11.8086 -11.6449 -11.1573 -10.6841 -10.1049  -9.9395  -9.9230  -9.7703
    -9.7322  -9.5318  -9.4386  -8.9662  -7.8524  -7.5399   1.7578   2.6927
     4.4725   5.2073   5.7359   6.1614   7.7968   8.3547   8.6227   9.0047
     9.1703   9.4789

          k = 0.3333-0.1667-0.7463 (  1076 PWs)   bands (ev):

   -12.0323 -11.7945 -10.8983 -10.3314 -10.2360 -10.0518  -9.9916  -9.9735
    -9.6506  -9.6465  -9.4677  -9.1629  -7.5339  -7.3808   1.7339   2.1643
     4.1779   4.7990   5.1689   6.0080   8.0780   8.5900   8.6535   8.8021
     8.9084   9.4812

          k = 0.3333-0.3333 0.0000 (  1068 PWs)   bands (ev):

   -11.8896 -11.6263 -10.6384 -10.3161 -10.2333 -10.1178 -10.0010  -9.7300
    -9.6339  -9.6243  -9.5896  -9.5064  -8.7382  -7.9771   2.5050   3.8534
     5.7175   6.4426   6.6191   6.9179   7.5742   8.1949   9.1013   9.1060
     9.1515   9.2652

          k = 0.3333-0.3333 0.2488 (  1063 PWs)   bands (ev):

   -11.6477 -11.4420 -11.0216 -10.9916  -9.9117  -9.8870  -9.7029  -9.6461
    -9.6149  -9.6068  -9.2884  -8.8414  -8.5289  -7.8860   2.2902   3.2537
     5.5723   6.0465   6.5621   6.8805   7.1792   8.3055   8.6493   9.1514
     9.1882   9.5280

          k = 0.3333-0.3333 0.4975 (  1075 PWs)   bands (ev):

   -11.8775 -11.5057 -11.4353 -10.9538 -10.1706 -10.0110  -9.8454  -9.7982
    -9.7886  -9.5472  -9.5014  -8.8345  -7.9048  -7.7216   1.7557   2.2257
     5.0243   5.4358   5.5101   6.7097   7.1231   8.5800   8.6375   9.1029
     9.1849   9.3136

          k = 0.3333-0.3333-0.7463 (  1084 PWs)   bands (ev):

   -12.1418 -11.6886 -11.3046 -10.6834 -10.3073 -10.1814  -9.9572  -9.8864
    -9.8831  -9.7985  -9.6680  -9.1111  -7.6720  -7.5861   1.4641   1.7588
     4.8240   4.8768   4.8955   7.0241   7.2469   8.6943   8.7317   8.8793
     9.0412   9.2927

     highest occupied level (ev):     9.7062

!    total energy              =    -430.47307311 Ry
     Harris-Foulkes estimate   =    -430.47307311 Ry
     estimated scf accuracy    <          1.1E-13 Ry

     The total energy is the sum of the following terms:

     one-electron contribution =     -96.67815584 Ry
     hartree contribution      =      85.52870675 Ry
     xc contribution           =    -116.84228568 Ry
     ewald contribution        =    -302.48133834 Ry

     convergence has been achieved in  13 iterations

     Forces acting on atoms (cartesian axes, Ry/au):

     atom    1 type  1   force =     0.00044092    0.00044092    0.00000000
     atom    2 type  1   force =    -0.00003718   -0.00003718    0.00000000
     atom    3 type  2   force =     0.01401773   -0.01353603   -0.00000000
     atom    4 type  2   force =    -0.01353603    0.01401773    0.00000000
     atom    5 type  2   force =     0.01334879    0.01334879    0.00000000
     atom    6 type  2   force =    -0.01423423   -0.01423423    0.00000000

     Total force =     0.039006     Total SCF correction =     0.000001


     Computing stress (Cartesian axis) and pressure

          total   stress  (Ry/bohr**3)                   (kbar)     P=-9546.33
  -0.06519048   0.00000027  -0.00000000      -9589.85      0.04     -0.00
   0.00000027  -0.06519048   0.00000000          0.04  -9589.85      0.00
   0.00000000  -0.00000000  -0.06430291          0.00     -0.00  -9459.28


     BFGS Geometry Optimization

     number of scf cycles    =   1
     number of bfgs steps    =   0

     enthalpy new            =    -430.4730731088 Ry

     new trust radius        =       0.5000000000 bohr
     new conv_thr            =            1.0E-12 Ry

     new unit-cell volume =    356.41851 a.u.^3 (    52.81577 Ang^3 )
     density =      9.47658 g/cm^3

CELL_PARAMETERS (alat=  9.11000000)
   0.888922769   0.000000000   0.000000000
   0.000000000   0.888922769   0.000000000
   0.000000000   0.000000000   0.596591501

ATOMIC_POSITIONS (crystal)
Sn       0.000003299   0.000003299   0.000000000
Sn       0.499999722   0.499999722   0.500000000
O        0.806104872   0.192898732   0.500000000
O        0.192898732   0.806104872   0.500000000
O        0.306099868   0.306099868   0.000000000
O        0.692893508   0.692893508   0.000000000



     Writing output data file SnO2.save
     Check: negative starting charge=   -0.009566
     NEW-OLD atomic charge density approx. for the potential

     Check: negative/imaginary core charge=   -0.001407    0.000000
     Check: negative starting charge=   -0.001840

     negative rho (up, down):  1.262E+00 0.000E+00
     extrapolated charge   30.09644, renormalised to   52.00000

     total cpu time spent up to now is       34.2 secs

     Self-consistent Calculation

     iteration #  1     ecut=    25.00 Ry     beta= 0.70
     Davidson diagonalization with overlap
     ethr =  1.00E-06,  avg # of iterations = 12.2

     total cpu time spent up to now is       41.5 secs

     total energy              =    -402.03614691 Ry
     Harris-Foulkes estimate   =    -475.73170088 Ry
     estimated scf accuracy    <      58.43101906 Ry

     iteration #  2     ecut=    25.00 Ry     beta= 0.70
     Davidson diagonalization with overlap
     ethr =  1.00E-02,  avg # of iterations =  5.4

     total cpu time spent up to now is       45.2 secs

     total energy              =    -436.53015834 Ry
     Harris-Foulkes estimate   =    -447.73864369 Ry
     estimated scf accuracy    <      17.34626438 Ry

     iteration #  3     ecut=    25.00 Ry     beta= 0.70
     Davidson diagonalization with overlap
     ethr =  1.00E-02,  avg # of iterations =  2.7

     total cpu time spent up to now is       47.8 secs

     total energy              =    -439.53280264 Ry
     Harris-Foulkes estimate   =    -439.90576013 Ry
     estimated scf accuracy    <       0.69972188 Ry

     iteration #  4     ecut=    25.00 Ry     beta= 0.70
     Davidson diagonalization with overlap
     ethr =  1.35E-03,  avg # of iterations =  2.0

     total cpu time spent up to now is       49.7 secs

     total energy              =    -439.47828262 Ry
     Harris-Foulkes estimate   =    -439.58205245 Ry
     estimated scf accuracy    <       0.16900770 Ry

     iteration #  5     ecut=    25.00 Ry     beta= 0.70
     Davidson diagonalization with overlap
     ethr =  3.25E-04,  avg # of iterations =  2.1

     total cpu time spent up to now is       51.8 secs

     total energy              =    -439.47838559 Ry
     Harris-Foulkes estimate   =    -439.49945840 Ry
     estimated scf accuracy    <       0.02851631 Ry

     iteration #  6     ecut=    25.00 Ry     beta= 0.70
     Davidson diagonalization with overlap
     ethr =  5.48E-05,  avg # of iterations =  2.1

     negative rho (up, down):  4.096E-04 0.000E+00

     total cpu time spent up to now is       54.2 secs

     total energy              =    -439.49188354 Ry
     Harris-Foulkes estimate   =    -439.49276817 Ry
     estimated scf accuracy    <       0.00169738 Ry

     iteration #  7     ecut=    25.00 Ry     beta= 0.70
     Davidson diagonalization with overlap
     ethr =  3.26E-06,  avg # of iterations =  2.2

     negative rho (up, down):  6.457E-05 0.000E+00

     total cpu time spent up to now is       56.4 secs

     total energy              =    -439.49220968 Ry
     Harris-Foulkes estimate   =    -439.49226138 Ry
     estimated scf accuracy    <       0.00008452 Ry

     iteration #  8     ecut=    25.00 Ry     beta= 0.70
     Davidson diagonalization with overlap
     ethr =  1.63E-07,  avg # of iterations =  2.1

     total cpu time spent up to now is       58.7 secs

     total energy              =    -439.49221807 Ry
     Harris-Foulkes estimate   =    -439.49222442 Ry
     estimated scf accuracy    <       0.00001079 Ry

     iteration #  9     ecut=    25.00 Ry     beta= 0.70
     Davidson diagonalization with overlap
     ethr =  2.07E-08,  avg # of iterations =  2.9

     total cpu time spent up to now is       61.0 secs

     total energy              =    -439.49221996 Ry
     Harris-Foulkes estimate   =    -439.49222036 Ry
     estimated scf accuracy    <       0.00000075 Ry

     iteration # 10     ecut=    25.00 Ry     beta= 0.70
     Davidson diagonalization with overlap
     ethr =  1.45E-09,  avg # of iterations =  2.8

     total cpu time spent up to now is       63.5 secs

     total energy              =    -439.49222010 Ry
     Harris-Foulkes estimate   =    -439.49222011 Ry
     estimated scf accuracy    <       0.00000003 Ry

     iteration # 11     ecut=    25.00 Ry     beta= 0.70
     Davidson diagonalization with overlap
     ethr =  5.49E-11,  avg # of iterations =  2.0

     total cpu time spent up to now is       65.9 secs

     total energy              =    -439.49222010 Ry
     Harris-Foulkes estimate   =    -439.49222010 Ry
     estimated scf accuracy    <          9.6E-10 Ry

     iteration # 12     ecut=    25.00 Ry     beta= 0.70
     Davidson diagonalization with overlap
     ethr =  1.84E-12,  avg # of iterations =  2.8

     total cpu time spent up to now is       68.3 secs

     total energy              =    -439.49222010 Ry
     Harris-Foulkes estimate   =    -439.49222010 Ry
     estimated scf accuracy    <          1.6E-11 Ry

     iteration # 13     ecut=    25.00 Ry     beta= 0.70
     Davidson diagonalization with overlap
     ethr =  1.00E-13,  avg # of iterations =  2.0

     total cpu time spent up to now is       70.3 secs

     total energy              =    -439.49222010 Ry
     Harris-Foulkes estimate   =    -439.49222010 Ry
     estimated scf accuracy    <          1.4E-12 Ry

     iteration # 14     ecut=    25.00 Ry     beta= 0.70
     Davidson diagonalization with overlap
     ethr =  1.00E-13,  avg # of iterations =  1.0

     total cpu time spent up to now is       72.0 secs

     End of self-consistent calculation

          k = 0.0000 0.0000 0.0000 (  1065 PWs)   bands (ev):

    -7.6520  -7.2345  -5.0288  -4.7452  -4.7452  -4.6880  -4.1894  -4.1583
    -3.8483  -3.8482  -3.6087  -3.5265  -3.5265   0.7470   6.3819  10.2850
    10.2851  10.6036  11.4758  13.4558  14.7045  14.7046  14.8016  15.3946
    15.3946  15.5869

          k = 0.0000 0.0000 0.2794 (  1074 PWs)   bands (ev):

    -7.4255  -6.8307  -5.8404  -5.8402  -4.9105  -4.5866  -4.1209  -4.1209
    -4.0988  -3.9106  -3.7011  -2.4514  -2.4514   0.2807   6.0559  10.5178
    10.6905  10.6908  11.6122  11.6619  13.6015  13.6015  14.4715  15.0947
    15.0948  15.2403

          k = 0.0000 0.0000 0.5587 (  1070 PWs)   bands (ev):

    -6.8661  -6.6774  -6.6772  -6.0169  -4.5999  -4.3407  -4.1041  -4.1041
    -3.9062  -3.6987  -3.5726  -1.1634  -0.7739  -0.7739   5.9287   9.0050
    10.8252  10.9367  10.9372  12.2063  12.2907  12.2912  13.0949  14.3113
    14.7585  14.7586

          k = 0.0000 0.0000-0.8381 (  1058 PWs)   bands (ev):

    -6.9196  -6.9194  -6.0413  -6.0412  -4.1110  -4.1109  -3.7156  -3.7156
    -3.6575  -3.6575  -2.8496  -2.8495   0.0255   0.0255   6.8648   6.8649
    10.1450  10.1450  11.7949  11.7949  13.1801  13.1829  13.2012  13.2040
    14.1002  14.1002

          k = 0.0000 0.1875 0.0000 (  1065 PWs)   bands (ev):

    -7.5413  -7.1312  -5.3782  -4.8251  -4.8092  -4.5899  -4.1083  -3.9867
    -3.9338  -3.9105  -3.8960  -3.7187  -3.0332   0.5127   6.4680   9.9042
    10.6600  10.7543  11.6838  13.1722  14.1107  14.7904  15.0652  15.3601
    15.3931  15.4543

          k = 0.0000 0.1875 0.2794 (  1067 PWs)   bands (ev):

    -7.2966  -6.7489  -5.9985  -5.8455  -4.6904  -4.5406  -4.1004  -4.0671
    -4.0467  -4.0014  -3.5440  -2.6195  -2.0805   0.2311   6.2831   9.9540
    10.2431  11.3386  11.5492  11.9366  13.5824  13.7092  14.0418  15.0087
    15.1185  15.4970

          k = 0.0000 0.1875 0.5587 (  1073 PWs)   bands (ev):

    -7.0376  -6.8869  -6.3538  -5.7835  -4.6790  -4.2957  -4.2011  -4.0757
    -3.9606  -3.8082  -3.7483  -1.9339  -0.6273  -0.1945   6.1677   8.8326
     9.7705  10.7638  11.2693  11.3423  12.5377  13.2176  13.4934  14.3514
    14.6404  15.1080

          k = 0.0000 0.1875-0.8381 (  1066 PWs)   bands (ev):

    -7.1171  -7.1170  -5.8242  -5.8241  -4.1682  -4.1681  -3.8308  -3.8308
    -3.7670  -3.7670  -3.1942  -3.1941   0.1612   0.1612   6.9905   6.9906
     9.8787   9.8788  10.8623  10.8623  13.3628  13.3628  13.8441  13.8441
    14.4373  14.4373

          k = 0.0000 0.3750 0.0000 (  1070 PWs)   bands (ev):

    -7.3526  -6.9854  -5.8080  -5.2150  -4.8561  -4.6562  -4.2620  -4.0797
    -4.0578  -3.9645  -3.9130  -3.9085  -2.0435  -0.0374   6.9452   8.9233
    11.1974  11.2330  12.4899  12.5568  13.0202  14.6488  14.8945  15.2259
    15.2790  15.2825

          k = 0.0000 0.3750 0.2794 (  1069 PWs)   bands (ev):

    -7.0955  -6.5390  -6.4199  -5.9309  -4.5840  -4.4328  -4.2329  -4.1588
    -3.9986  -3.9924  -3.7637  -3.2231  -1.4280   0.0005   6.9123   9.1390
     9.8081  10.7123  11.8337  13.0574  13.1848  13.9920  14.0704  14.9218
    14.9667  15.4662

          k = 0.0000 0.3750 0.5587 (  1069 PWs)   bands (ev):

    -7.1795  -7.0878  -5.9059  -5.4137  -4.6704  -4.2794  -4.2129  -3.9555
    -3.8994  -3.8600  -3.7384  -2.8678  -0.2465   0.2072   6.8801   8.5321
     8.9720   9.5888  11.0106  11.0427  13.1777  13.5899  14.1826  14.3735
    14.8547  15.8682

          k = 0.0000 0.3750-0.8381 (  1076 PWs)   bands (ev):

    -7.3749  -7.3747  -5.3172  -5.3169  -4.3256  -4.3255  -3.9556  -3.9555
    -3.9076  -3.9075  -3.7833  -3.7833   0.3454   0.3455   7.3527   7.3528
     9.0689   9.0690  10.1801  10.1802  13.5977  13.5977  13.8593  13.8594
    15.5752  15.5753

          k = 0.0000-0.5625 0.0000 (  1078 PWs)   bands (ev):

    -7.0984  -7.0938  -5.7092  -5.7070  -4.8615  -4.8611  -4.2458  -4.2457
    -4.1359  -4.1353  -4.0502  -4.0485  -0.9499  -0.9440   7.8112   7.8196
    11.8070  11.8074  11.9774  11.9858  13.5499  13.5536  15.0961  15.1005
    15.2068  15.2078

          k = 0.0000-0.5625 0.2794 (  1056 PWs)   bands (ev):

    -6.7983  -6.7964  -6.1611  -6.1516  -4.3007  -4.3000  -4.0119  -4.0078
    -3.8372  -3.8362  -3.5436  -3.5380  -0.5754  -0.5752   7.9496   7.9553
    10.1526  10.1573  12.3941  12.3943  13.9197  13.9229  14.5874  14.5885
    15.1266  15.1314

          k = 0.0000-0.5625 0.5587 (  1086 PWs)   bands (ev):

    -7.2794  -7.2771  -5.6725  -5.6549  -4.5196  -4.5116  -4.1725  -4.1711
    -4.0821  -4.0777  -3.7952  -3.7862   0.0210   0.0292   7.8613   7.8651
     8.7141   8.7195  10.9080  10.9192  13.4768  13.4814  14.2131  14.2146
    15.7326  15.7349

          k = 0.0000-0.5625-0.8381 (  1096 PWs)   bands (ev):

    -7.5897  -7.5895  -4.9780  -4.9773  -4.4968  -4.4965  -4.4528  -4.4525
    -4.1526  -4.1526  -4.0722  -4.0722   0.3209   0.3210   7.7558   7.7560
     8.3192   8.3192   9.9770   9.9771  13.6094  13.6094  13.8925  13.8926
    16.0357  16.0358

          k = 0.1875 0.1875 0.0000 (  1064 PWs)   bands (ev):

    -7.5400  -7.0340  -5.6357  -4.7227  -4.6928  -4.6358  -4.1770  -3.9690
    -3.9461  -3.8596  -3.8321  -3.7438  -2.9003   0.3014   6.6531  10.2550
    10.3486  10.9036  11.8282  12.9006  13.7461  14.6816  15.0528  15.2794
    15.3379  15.3774

          k = 0.1875 0.1875 0.2794 (  1064 PWs)   bands (ev):

    -7.2426  -6.6288  -6.1770  -5.8513  -4.6907  -4.4058  -4.1655  -4.0885
    -4.0329  -3.7341  -3.6657  -2.4290  -2.2614   0.1880   6.5117   9.4028
    10.8037  11.1416  11.7786  11.7916  13.4438  13.5994  14.1340  14.8806
    15.4290  15.5001

          k = 0.1875 0.1875 0.5587 (  1069 PWs)   bands (ev):

    -7.1371  -6.6966  -6.5021  -5.4931  -4.6909  -4.2208  -4.1438  -4.0547
    -3.9388  -3.9265  -3.6731  -2.0390  -0.7670   0.1202   6.3648   8.6030
     9.2484  10.6702  11.1721  11.9885  12.4420  13.0174  13.7506  14.4093
    14.7642  15.4213

          k = 0.1875 0.1875-0.8381 (  1068 PWs)   bands (ev):

    -7.3656  -6.9183  -6.1936  -5.2188  -4.2960  -4.1070  -4.0481  -3.8210
    -3.7507  -3.7474  -3.6979  -2.9029   0.0621   0.3583   6.5460   7.6698
     9.2531   9.7592   9.7829  12.2875  13.1133  13.5355  13.5462  14.0791
    14.2084  15.2202

          k = 0.1875 0.3750 0.0000 (  1067 PWs)   bands (ev):

    -7.4278  -6.9815  -5.8614  -4.9753  -4.7587  -4.5926  -4.2058  -4.0380
    -3.9844  -3.9353  -3.8924  -3.8237  -2.2220  -0.3367   7.2587   9.3677
    11.0674  11.2789  12.4403  12.4520  12.8720  14.5205  14.7351  15.1269
    15.2124  15.3467

          k = 0.1875 0.3750 0.2794 (  1066 PWs)   bands (ev):

    -7.1436  -6.6060  -6.3499  -5.8833  -4.5344  -4.3730  -4.1561  -4.0762
    -4.0499  -3.9271  -3.7019  -2.9583  -1.6545  -0.2090   7.1843   8.9418
    10.3590  10.6858  11.8259  12.7903  12.9420  13.8285  14.2846  14.7199
    15.3457  15.4013

          k = 0.1875 0.3750 0.5587 (  1072 PWs)   bands (ev):

    -7.2068  -6.9539  -6.2163  -5.4897  -4.5545  -4.2948  -4.2032  -4.0945
    -3.9223  -3.8624  -3.7111  -2.6915  -0.5283   0.1939   6.7909   7.8634
     9.1881  10.3199  10.6641  11.2834  13.3248  13.6678  14.0926  14.4357
    14.8288  15.8197

          k = 0.1875 0.3750-0.8381 (  1076 PWs)   bands (ev):

    -7.5075  -7.2013  -5.8403  -4.8193  -4.5074  -4.4268  -4.2273  -3.9690
    -3.8669  -3.8571  -3.7985  -3.0890   0.0916   0.4158   6.4385   7.5896
     8.7981   9.4313   9.6646  11.4739  13.6925  13.8104  13.8445  14.1608
    14.7229  15.8789

          k = 0.1875-0.5625 0.0000 (  1068 PWs)   bands (ev):

    -7.1844  -7.1815  -5.4966  -5.4961  -4.6982  -4.6977  -4.1097  -4.1084
    -4.0543  -4.0536  -3.8493  -3.8487  -1.2343  -1.2300   8.2610   8.2685
    11.8325  11.8395  11.8641  11.8644  13.5640  13.5672  14.9625  14.9648
    15.2565  15.2571

          k = 0.1875-0.5625 0.2794 (  1060 PWs)   bands (ev):

    -6.9108  -6.9104  -6.0479  -6.0407  -4.3868  -4.3847  -4.0885  -4.0871
    -3.8678  -3.8674  -3.3796  -3.3729  -0.8685  -0.8670   8.1549   8.1599
    10.3081  10.3122  12.2144  12.2148  13.8879  13.8905  14.4605  14.4607
    15.2001  15.2026

          k = 0.1875-0.5625 0.5587 (  1076 PWs)   bands (ev):

    -7.1840  -7.1816  -5.8675  -5.8553  -4.3725  -4.3695  -4.0855  -4.0841
    -3.8900  -3.8894  -3.5343  -3.5227  -0.1182  -0.1106   7.2867   7.2893
     9.6034   9.6105  10.7496  10.7604  13.7223  13.7270  14.3801  14.3832
    15.4759  15.4778

          k = 0.1875-0.5625-0.8381 (  1080 PWs)   bands (ev):

    -7.4390  -7.4389  -5.3298  -5.3295  -4.3855  -4.3855  -4.0394  -4.0394
    -3.9400  -3.9399  -3.6672  -3.6671   0.2773   0.2773   6.7840   6.7841
     9.1552   9.1553  10.3363  10.3364  13.8442  13.8443  14.0878  14.0878
    15.7253  15.7254

          k = 0.3750 0.3750 0.0000 (  1068 PWs)   bands (ev):

    -7.4475  -7.1641  -5.5032  -4.7673  -4.7627  -4.7169  -4.1739  -4.0533
    -3.9372  -3.8631  -3.8534  -3.8298  -2.4254  -0.9757   8.1365  10.3730
    10.3923  11.4939  12.1769  12.2712  12.6480  14.1423  14.5734  14.7524
    15.1838  15.2967

          k = 0.3750 0.3750 0.2794 (  1063 PWs)   bands (ev):

    -7.1211  -6.8286  -6.0793  -5.8855  -4.4336  -4.3917  -4.0831  -3.9821
    -3.9821  -3.8834  -3.5491  -2.4501  -2.2395  -0.7083   7.8871   8.8499
    10.6319  10.8928  12.0068  12.2698  12.5757  14.0208  14.2767  14.6355
    15.2015  15.3784

          k = 0.3750 0.3750 0.5587 (  1075 PWs)   bands (ev):

    -7.2077  -6.7411  -6.5682  -5.8492  -4.4226  -4.1945  -4.1323  -4.1060
    -4.0417  -3.8315  -3.6913  -2.4311  -0.8077  -0.1162   6.7030   7.1230
    10.0536  10.1639  10.4344  12.0988  13.1928  13.9058  14.1010  14.4545
    14.9780  15.5161

          k = 0.3750 0.3750-0.8381 (  1084 PWs)   bands (ev):

    -7.5237  -7.0784  -6.2517  -5.3902  -4.4906  -4.2460  -4.0891  -4.0407
    -4.0278  -3.9890  -3.7248  -2.8186  -0.1101   0.2138   5.9304   6.5527
     9.1892   9.2326  10.2174  13.0587  13.1815  14.0682  14.1042  14.2057
    14.3772  15.7054

          k = 0.3750-0.5625 0.0000 (  1066 PWs)   bands (ev):

    -7.3307  -7.3290  -5.0063  -5.0050  -4.6743  -4.6738  -4.1045  -4.1023
    -3.9573  -3.9571  -3.8846  -3.8843  -1.7838  -1.7815   9.3071   9.3125
    11.4148  11.4209  11.8491  11.8497  13.2792  13.2812  14.6242  14.6251
    15.2875  15.2878

          k = 0.3750-0.5625 0.2794 (  1072 PWs)   bands (ev):

    -7.1050  -7.1046  -5.9452  -5.9422  -4.5888  -4.5882  -4.0564  -4.0561
    -3.9458  -3.9453  -3.1576  -3.1503  -1.5599  -1.5563   8.5749   8.5776
    10.6895  10.6906  11.9221  11.9255  13.4712  13.4739  14.3790  14.3800
    15.2026  15.2057

          k = 0.3750-0.5625 0.5587 (  1066 PWs)   bands (ev):

    -6.9678  -6.9648  -6.1665  -6.1594  -4.2855  -4.2845  -4.0067  -4.0066
    -3.9298  -3.9298  -2.7688  -2.7600  -0.5728  -0.5665   6.7860   6.7875
    10.0836  10.0845  11.3992  11.4008  13.9539  13.9570  14.4251  14.4266
    15.0640  15.0672

          k = 0.3750-0.5625-0.8381 (  1068 PWs)   bands (ev):

    -7.2573  -7.2571  -5.7741  -5.7740  -4.3080  -4.3080  -3.9450  -3.9450
    -3.8118  -3.8117  -2.8979  -2.8978   0.0320   0.0321   5.9483   5.9484
     9.0740   9.0741  11.7918  11.7918  14.2215  14.2216  14.4131  14.4132
    14.9327  14.9328

          k =-0.5625-0.5625 0.0000 (  1084 PWs)   bands (ev):

    -7.4032  -7.4030  -4.9806  -4.9805  -4.7542  -4.7536  -4.2574  -4.2574
    -4.1820  -4.1815  -4.1134  -4.1132  -2.1145  -2.1144  10.5055  10.5068
    10.5823  10.5837  11.8140  11.8141  13.0032  13.0032  14.5446  14.5446
    15.1590  15.1590

          k =-0.5625-0.5625 0.2794 (  1064 PWs)   bands (ev):

    -7.1232  -7.1231  -5.8057  -5.8056  -4.5985  -4.5984  -3.9278  -3.9276
    -3.9156  -3.9154  -2.3708  -2.3692  -2.2967  -2.2952   8.8032   8.8033
    10.9053  10.9053  12.1073  12.1073  12.9007  12.9008  14.5588  14.5588
    15.1415  15.1416

          k =-0.5625-0.5625 0.5587 (  1080 PWs)   bands (ev):

    -6.8413  -6.8410  -6.5564  -6.5562  -4.2942  -4.2941  -4.2692  -4.2690
    -4.0801  -4.0801  -2.5185  -2.5184  -0.9264  -0.9263   6.6171   6.6172
     9.9241   9.9241  12.2239  12.2239  13.4464  13.4465  14.4689  14.4690
    14.8599  14.8601

          k =-0.5625-0.5625-0.8381 (  1072 PWs)   bands (ev):

    -7.0974  -7.0972  -6.1687  -6.1686  -4.2241  -4.2241  -3.9790  -3.9790
    -3.9194  -3.9194  -2.6794  -2.6794  -0.1255  -0.1255   5.6563   5.6565
     8.9666   8.9666  13.2629  13.2630  13.4993  13.4993  14.3776  14.3778
    14.5165  14.5166

          k = 0.1875-0.1875 0.0000 (  1064 PWs)   bands (ev):

    -7.5401  -7.0340  -5.6356  -4.7231  -4.6928  -4.6358  -4.1767  -3.9692
    -3.9461  -3.8595  -3.8320  -3.7438  -2.9002   0.3014   6.6532  10.2544
    10.3492  10.9036  11.8282  12.9006  13.7461  14.6817  15.0528  15.2794
    15.3379  15.3774

          k = 0.1875-0.1875 0.2794 (  1064 PWs)   bands (ev):

    -7.2426  -6.6287  -6.1770  -5.8514  -4.6907  -4.4058  -4.1655  -4.0885
    -4.0329  -3.7341  -3.6657  -2.4293  -2.2610   0.1879   6.5117   9.4028
    10.8037  11.1416  11.7785  11.7917  13.4438  13.5994  14.1340  14.8806
    15.4290  15.5001

          k = 0.1875-0.1875 0.5587 (  1069 PWs)   bands (ev):

    -7.1369  -6.6969  -6.5021  -5.4928  -4.6909  -4.2208  -4.1438  -4.0548
    -3.9388  -3.9265  -3.6731  -2.0390  -0.7670   0.1201   6.3648   8.6029
     9.2484  10.6702  11.1720  11.9885  12.4419  13.0174  13.7505  14.4093
    14.7642  15.4213

          k = 0.1875-0.1875-0.8381 (  1068 PWs)   bands (ev):

    -7.3655  -6.9185  -6.1937  -5.2185  -4.2960  -4.1073  -4.0479  -3.8210
    -3.7507  -3.7473  -3.6980  -2.9028   0.0622   0.3583   6.5461   7.6697
     9.2530   9.7593   9.7829  12.2875  13.1134  13.5354  13.5462  14.0791
    14.2084  15.2203

          k = 0.3750-0.1875 0.0000 (  1067 PWs)   bands (ev):

    -7.4279  -6.9813  -5.8613  -4.9755  -4.7587  -4.5927  -4.2057  -4.0379
    -3.9844  -3.9353  -3.8924  -3.8237  -2.2220  -0.3367   7.2587   9.3676
    11.0674  11.2789  12.4403  12.4520  12.8720  14.5205  14.7351  15.1269
    15.2124  15.3466

          k = 0.3750-0.1875 0.2794 (  1066 PWs)   bands (ev):

    -7.1437  -6.6058  -6.3500  -5.8834  -4.5344  -4.3730  -4.1561  -4.0762
    -4.0500  -3.9271  -3.7019  -2.9583  -1.6545  -0.2090   7.1843   8.9418
    10.3589  10.6858  11.8259  12.7905  12.9418  13.8285  14.2847  14.7200
    15.3457  15.4013

          k = 0.3750-0.1875 0.5587 (  1072 PWs)   bands (ev):

    -7.2066  -6.9541  -6.2164  -5.4895  -4.5545  -4.2948  -4.2032  -4.0946
    -3.9223  -3.8624  -3.7111  -2.6915  -0.5283   0.1939   6.7910   7.8633
     9.1881  10.3199  10.6641  11.2834  13.3248  13.6678  14.0926  14.4358
    14.8287  15.8198

          k = 0.3750-0.1875-0.8381 (  1076 PWs)   bands (ev):

    -7.5073  -7.2014  -5.8405  -4.8181  -4.5086  -4.4268  -4.2272  -3.9690
    -3.8669  -3.8571  -3.7985  -3.0889   0.0916   0.4157   6.4386   7.5895
     8.7980   9.4313   9.6647  11.4739  13.6925  13.8104  13.8446  14.1608
    14.7228  15.8790

          k = 0.3750-0.3750 0.0000 (  1068 PWs)   bands (ev):

    -7.4476  -7.1640  -5.5030  -4.7678  -4.7626  -4.7170  -4.1735  -4.0534
    -3.9372  -3.8632  -3.8534  -3.8298  -2.4254  -0.9757   8.1365  10.3700
    10.3953  11.4939  12.1770  12.2711  12.6480  14.1423  14.5734  14.7524
    15.1839  15.2966

          k = 0.3750-0.3750 0.2794 (  1063 PWs)   bands (ev):

    -7.1212  -6.8284  -6.0793  -5.8856  -4.4336  -4.3917  -4.0831  -3.9823
    -3.9820  -3.8834  -3.5491  -2.4505  -2.2390  -0.7084   7.8871   8.8499
    10.6319  10.8928  12.0068  12.2700  12.5756  14.0207  14.2767  14.6355
    15.2015  15.3784

          k = 0.3750-0.3750 0.5587 (  1075 PWs)   bands (ev):

    -7.2076  -6.7414  -6.5682  -5.8491  -4.4226  -4.1946  -4.1323  -4.1060
    -4.0417  -3.8315  -3.6914  -2.4311  -0.8077  -0.1163   6.7031   7.1230
    10.0534  10.1641  10.4345  12.0989  13.1928  13.9057  14.1011  14.4545
    14.9779  15.5162

          k = 0.3750-0.3750-0.8381 (  1084 PWs)   bands (ev):

    -7.5236  -7.0786  -6.2519  -5.3899  -4.4906  -4.2461  -4.0892  -4.0407
    -4.0278  -3.9890  -3.7249  -2.8185  -0.1101   0.2138   5.9305   6.5526
     9.1891   9.2327  10.2175  13.0586  13.1816  14.0682  14.1039  14.2060
    14.3771  15.7055

     highest occupied level (ev):    16.0358

!    total energy              =    -439.49222010 Ry
     Harris-Foulkes estimate   =    -439.49222010 Ry
     estimated scf accuracy    <          1.1E-13 Ry

     The total energy is the sum of the following terms:

     one-electron contribution =     -56.67511200 Ry
     hartree contribution      =      78.94527010 Ry
     xc contribution           =    -121.62877533 Ry
     ewald contribution        =    -340.13360287 Ry

     convergence has been achieved in  14 iterations

     Forces acting on atoms (cartesian axes, Ry/au):

     atom    1 type  1   force =    -0.00331774   -0.00331774    0.00000000
     atom    2 type  1   force =    -0.00270708   -0.00270708    0.00000000
     atom    3 type  2   force =    -0.05062569    0.04979569    0.00000000
     atom    4 type  2   force =     0.04979569   -0.05062569    0.00000000
     atom    5 type  2   force =    -0.04677953   -0.04677953    0.00000000
     atom    6 type  2   force =     0.05363435    0.05363435    0.00000000

     Total force =     0.142309     Total SCF correction =     0.000002


     Computing stress (Cartesian axis) and pressure

          total   stress  (Ry/bohr**3)                   (kbar)     P=-7218.46
  -0.05009131   0.00000034   0.00000000      -7368.68      0.05      0.00
   0.00000034  -0.05009131   0.00000000          0.05  -7368.68      0.00
   0.00000000   0.00000000  -0.04702777          0.00      0.00  -6918.02


     number of scf cycles    =   2
     number of bfgs steps    =   1

     enthalpy old            =    -430.4730731088 Ry
     enthalpy new            =    -439.4922201030 Ry

     CASE: enthalpy_new < enthalpy_old

     new trust radius        =       0.7077215064 bohr
     new conv_thr            =            1.0E-12 Ry

     new unit-cell volume =    217.40932 a.u.^3 (    32.21674 Ang^3 )
     density =     15.53581 g/cm^3

CELL_PARAMETERS (alat=  9.11000000)
   0.722306921   0.000000000   0.000000000
   0.000000000   0.722306921   0.000000000
   0.000000000   0.000000000   0.551162263

ATOMIC_POSITIONS (crystal)
Sn      -0.000691772  -0.000691772   0.000000000
Sn       0.499480657   0.499480657   0.500000000
O        0.794615893   0.204168846   0.500000000
O        0.204168846   0.794615893   0.500000000
O        0.295435775   0.295435775   0.000000000
O        0.704990600   0.704990600   0.000000000



     Writing output data file SnO2.save
     Check: negative starting charge=   -0.001840
     NEW-OLD atomic charge density approx. for the potential

     Check: negative/imaginary core charge=   -0.000512    0.000000

     negative rho (up, down):  2.467E+00 0.000E+00
     extrapolated charge   18.75374, renormalised to   52.00000

     total cpu time spent up to now is       73.7 secs

     Self-consistent Calculation

     iteration #  1     ecut=    25.00 Ry     beta= 0.70
     Davidson diagonalization with overlap
     ethr =  1.00E-06,  avg # of iterations = 10.6

     total cpu time spent up to now is       81.1 secs

     total energy              =    -392.69416415 Ry
     Harris-Foulkes estimate   =    -483.73809643 Ry
     estimated scf accuracy    <     131.65965282 Ry

     iteration #  2     ecut=    25.00 Ry     beta= 0.70
     Davidson diagonalization with overlap
     ethr =  1.00E-02,  avg # of iterations =  5.0

     total cpu time spent up to now is       84.9 secs

     total energy              =    -437.81715589 Ry
     Harris-Foulkes estimate   =    -448.27525204 Ry
     estimated scf accuracy    <      15.15473573 Ry

     iteration #  3     ecut=    25.00 Ry     beta= 0.70
     Davidson diagonalization with overlap
     ethr =  1.00E-02,  avg # of iterations =  2.9

     total cpu time spent up to now is       87.5 secs

     total energy              =    -441.18946388 Ry
     Harris-Foulkes estimate   =    -441.35517674 Ry
     estimated scf accuracy    <       0.31788007 Ry

     iteration #  4     ecut=    25.00 Ry     beta= 0.70
     Davidson diagonalization with overlap
     ethr =  6.11E-04,  avg # of iterations =  2.0

     total cpu time spent up to now is       89.7 secs

     total energy              =    -441.20366128 Ry
     Harris-Foulkes estimate   =    -441.22480881 Ry
     estimated scf accuracy    <       0.03684800 Ry

     iteration #  5     ecut=    25.00 Ry     beta= 0.70
     Davidson diagonalization with overlap
     ethr =  7.09E-05,  avg # of iterations =  2.0

     total cpu time spent up to now is       91.7 secs

     total energy              =    -441.20559951 Ry
     Harris-Foulkes estimate   =    -441.20741212 Ry
     estimated scf accuracy    <       0.00293270 Ry

     iteration #  6     ecut=    25.00 Ry     beta= 0.70
     Davidson diagonalization with overlap
     ethr =  5.64E-06,  avg # of iterations =  2.5

     total cpu time spent up to now is       94.2 secs

     total energy              =    -441.20623381 Ry
     Harris-Foulkes estimate   =    -441.20651896 Ry
     estimated scf accuracy    <       0.00051271 Ry

     iteration #  7     ecut=    25.00 Ry     beta= 0.70
     Davidson diagonalization with overlap
     ethr =  9.86E-07,  avg # of iterations =  2.2

     total cpu time spent up to now is       96.5 secs

     total energy              =    -441.20634414 Ry
     Harris-Foulkes estimate   =    -441.20634551 Ry
     estimated scf accuracy    <       0.00000368 Ry

     iteration #  8     ecut=    25.00 Ry     beta= 0.70
     Davidson diagonalization with overlap
     ethr =  7.07E-09,  avg # of iterations =  3.0

     total cpu time spent up to now is       99.2 secs

     total energy              =    -441.20634529 Ry
     Harris-Foulkes estimate   =    -441.20634566 Ry
     estimated scf accuracy    <       0.00000067 Ry

     iteration #  9     ecut=    25.00 Ry     beta= 0.70
     Davidson diagonalization with overlap
     ethr =  1.29E-09,  avg # of iterations =  3.0

     total cpu time spent up to now is      101.5 secs

     total energy              =    -441.20634541 Ry
     Harris-Foulkes estimate   =    -441.20634543 Ry
     estimated scf accuracy    <       0.00000004 Ry

     iteration # 10     ecut=    25.00 Ry     beta= 0.70
     Davidson diagonalization with overlap
     ethr =  6.77E-11,  avg # of iterations =  2.0

     total cpu time spent up to now is      103.7 secs

     total energy              =    -441.20634542 Ry
     Harris-Foulkes estimate   =    -441.20634542 Ry
     estimated scf accuracy    <          1.8E-09 Ry

     iteration # 11     ecut=    25.00 Ry     beta= 0.70
     Davidson diagonalization with overlap
     ethr =  3.51E-12,  avg # of iterations =  2.1

     total cpu time spent up to now is      106.1 secs

     total energy              =    -441.20634542 Ry
     Harris-Foulkes estimate   =    -441.20634542 Ry
     estimated scf accuracy    <          9.2E-11 Ry

     iteration # 12     ecut=    25.00 Ry     beta= 0.70
     Davidson diagonalization with overlap
     ethr =  1.76E-13,  avg # of iterations =  2.1

     total cpu time spent up to now is      108.4 secs

     total energy              =    -441.20634542 Ry
     Harris-Foulkes estimate   =    -441.20634542 Ry
     estimated scf accuracy    <          4.5E-12 Ry

     iteration # 13     ecut=    25.00 Ry     beta= 0.70
     Davidson diagonalization with overlap
     ethr =  1.00E-13,  avg # of iterations =  1.0

     total cpu time spent up to now is      110.1 secs

     End of self-consistent calculation

          k = 0.0000 0.0000 0.0000 (  1065 PWs)   bands (ev):

     0.0051   0.2957   4.4529   6.0436   6.2940   6.6647   6.6648   7.4039
     7.4055   8.2026   8.9151   8.9232   8.9236  15.5584  19.1756  21.2958
    21.2960  21.9613  21.9920  25.1490  26.3318  26.3321  27.1014  28.8668
    28.8669  31.2358

          k = 0.0000 0.0000 0.3024 (  1074 PWs)   bands (ev):

     0.3254   0.4877   4.8687   5.2697   5.2715   6.2339   6.6833   7.5932
     7.5934   8.1373   8.9395  10.1953  10.1956  15.1550  16.9242  21.8646
    21.8648  22.0257  23.7540  23.9046  25.6575  25.6580  26.3189  27.9116
    27.9120  30.2223

          k = 0.0000 0.0000 0.6048 (  1070 PWs)   bands (ev):

     0.8851   0.9391   4.0006   4.0009   6.0690   6.7382   7.3124   7.3133
     7.4788   7.8987   8.9959  12.3831  12.4124  12.4138  16.2238  20.9879
    22.3840  22.5155  22.5156  24.3918  24.3920  24.6975  25.5633  27.1544
    27.1551  28.2691

          k = 0.0000 0.0000-0.9072 (  1058 PWs)   bands (ev):

     1.1726   1.1736   3.5953   3.5954   7.2012   7.2020   7.3837   7.3842
     7.6243   7.6248   9.8131   9.8132  13.5843  13.5849  17.8549  17.8552
    21.7227  21.7232  23.2799  23.2802  25.1165  25.1165  26.5063  26.5109
    26.8744  26.8794

          k = 0.0000 0.2307 0.0000 (  1065 PWs)   bands (ev):

     0.2562   0.4214   3.7878   5.4328   6.2366   6.7592   6.8027   7.7181
     7.9389   8.1425   8.5838   8.6597   9.3310  15.8290  19.5586  19.6826
    21.0145  21.9874  23.1500  25.0666  25.7638  26.7006  27.0748  28.3431
    28.7111  31.2734

          k = 0.0000 0.2307 0.3024 (  1067 PWs)   bands (ev):

     0.5264   0.5859   3.9964   4.9346   5.9891   6.3793   6.7559   7.5988
     7.6520   8.1028   8.9622   9.7722  10.5861  15.6683  17.2489  20.6043
    21.4889  22.0637  23.5876  24.2943  25.5733  25.8823  26.5632  27.3012
    27.9501  30.7285

          k = 0.0000 0.2307 0.6048 (  1073 PWs)   bands (ev):

     0.8627   0.9288   4.1159   4.1368   5.9144   6.7186   7.2832   7.3884
     7.6061   7.9274   9.0543  10.7525  12.6129  13.8494  16.8176  20.7111
    21.0261  21.9221  22.5056  24.2893  24.5172  24.9558  25.7879  25.8805
    28.1117  29.7094

          k = 0.0000 0.2307-0.9072 (  1066 PWs)   bands (ev):

     1.0142   1.0150   3.9682   3.9685   6.7326   6.7330   7.4813   7.4817
     7.9069   7.9070   9.5522   9.5522  13.6737  13.6742  18.1187  18.1190
    20.9491  20.9495  23.6356  23.6358  24.6398  24.6399  25.2125  25.2125
    28.9466  28.9472

          k = 0.0000 0.4615 0.0000 (  1070 PWs)   bands (ev):

     0.7888   0.9376   2.7896   4.0177   6.6344   6.9801   6.9909   7.7694
     8.0085   8.1497   8.2066   8.2655  11.0289  15.4439  18.5241  20.2633
    21.0300  22.2657  24.0524  24.4323  24.4683  25.8134  27.6253  28.2161
    28.6136  30.9391

          k = 0.0000 0.4615 0.3024 (  1069 PWs)   bands (ev):

     0.8520   0.9815   3.1883   4.1156   6.5149   6.7252   6.9545   7.5294
     7.6639   7.9963   8.7540   9.0098  11.8966  15.6623  18.0647  19.9293
    20.5345  22.3353  22.4745  24.5075  24.8833  25.7327  26.7616  27.1043
    29.0534  31.0004

          k = 0.0000 0.4615 0.6048 (  1069 PWs)   bands (ev):

     0.8315   0.8903   4.3943   4.4172   5.9399   6.7041   7.2669   7.3130
     7.6457   7.9537   9.1161   9.5216  13.3751  14.8025  18.1940  19.1959
    19.7541  20.9799  22.4125  23.4145  24.8995  25.0497  25.4207  25.7125
    29.9422  31.0692

          k = 0.0000 0.4615-0.9072 (  1076 PWs)   bands (ev):

     0.7732   0.7739   4.8490   4.8499   6.2640   6.2645   7.3855   7.3857
     7.8680   7.8681   9.3218   9.3219  14.0350  14.0353  18.3037  18.3040
    20.1482  20.1484  22.6918  22.6919  24.4472  24.4472  25.2129  25.2131
    30.7876  30.7880

          k = 0.0000-0.6922 0.0000 (  1078 PWs)   bands (ev):

     1.2637   1.2659   2.7294   2.7325   7.1172   7.1188   7.1886   7.1933
     7.9538   7.9543   8.1550   8.1569  13.3032  13.3294  19.2952  19.3077
    22.7832  22.8036  23.1156  23.1185  24.8714  24.8736  27.7012  27.7204
    30.0136  30.0317

          k = 0.0000-0.6922 0.3024 (  1056 PWs)   bands (ev):

     1.1423   1.1433   3.2520   3.2607   6.8893   6.8953   7.2184   7.2208
     7.8432   7.8463   8.6521   8.6521  13.8668  13.8807  19.3251  19.3341
    21.0475  21.0547  23.1564  23.1579  25.4980  25.5000  26.7887  26.8017
    30.3736  30.3929

          k = 0.0000-0.6922 0.6048 (  1086 PWs)   bands (ev):

     0.8184   0.8196   4.5325   4.5529   6.4318   6.4553   6.9893   6.9931
     7.8082   7.8114   9.1090   9.1099  14.4810  14.4927  18.7546  18.7706
    19.7026  19.7090  22.5998  22.6019  25.1491  25.1510  25.4188  25.4204
    31.1502  31.1619

          k = 0.0000-0.6922-0.9072 (  1096 PWs)   bands (ev):

     0.6564   0.6570   5.7355   5.7523   5.8106   5.8265   6.8683   6.8692
     7.8138   7.8141   9.2431   9.2432  14.3511  14.3514  17.9724  17.9726
    20.2705  20.2706  21.8692  21.8694  24.5885  24.5885  25.2328  25.2330
    31.4955  31.4959

          k = 0.2307 0.2307 0.0000 (  1064 PWs)   bands (ev):

     0.2477   0.7807   3.1592   5.9323   6.0153   6.6804   7.0469   7.4682
     8.0923   8.0993   8.2115   8.8047   9.6174  15.8824  18.5883  20.0639
    21.6068  22.2574  22.7714  24.8810  26.3765  26.5079  26.6857  27.8429
    28.7460  31.1349

          k = 0.2307 0.2307 0.3024 (  1064 PWs)   bands (ev):

     0.5037   0.8543   3.4776   5.0454   6.1262   6.4752   6.8933   7.5984
     7.6026   8.0934   8.7905  10.1164  10.1940  15.8722  17.5909  19.4520
    21.9713  22.3735  22.9505  24.5302  25.3776  26.1471  26.4015  27.0855
    28.2664  30.9151

          k = 0.2307 0.2307 0.6048 (  1069 PWs)   bands (ev):

     0.8238   0.9996   3.8614   4.4494   6.0165   6.7331   7.0962   7.4405
     7.8306   7.9450   9.0927  10.5762  12.2852  14.2820  17.3935  19.6523
    20.6869  21.3225  23.2848  23.8731  24.6678  24.9148  25.2073  27.4545
    27.7272  30.3259

          k = 0.2307 0.2307-0.9072 (  1068 PWs)   bands (ev):

     0.7712   1.2139   3.4696   4.9631   6.5526   6.6907   6.8374   7.5163
     7.8200   8.7243   9.3562   9.6858  13.4473  13.8213  17.3346  19.2059
    20.3618  20.5106  22.2951  23.8507  24.2313  24.8517  25.6859  26.6574
    28.1115  30.1489

          k = 0.2307 0.4615 0.0000 (  1067 PWs)   bands (ev):

     0.4895   1.3110   2.5207   4.7612   6.6261   6.7403   7.1596   7.7809
     7.7941   8.0072   8.1333   8.6372  10.6694  14.5484  19.0370  21.1139
    21.2276  22.1338  23.1413  24.0859  25.5758  26.0107  27.5395  28.0551
    28.4685  30.6223

          k = 0.2307 0.4615 0.3024 (  1066 PWs)   bands (ev):

     0.6833   1.1647   3.0767   4.5023   6.4264   6.7918   6.9967   7.4730
     7.6764   7.9365   8.6323   9.4401  11.2839  14.8710  18.7689  19.3928
    21.8144  22.0332  22.3787  23.7245  25.5040  25.7925  26.6329  27.7394
    28.6901  30.8353

          k = 0.2307 0.4615 0.6048 (  1072 PWs)   bands (ev):

     0.8239   0.9875   3.9351   4.4687   6.3008   6.8082   6.8658   7.5997
     7.8054   7.9510   9.0963   9.8083  12.7612  14.6360  17.8337  18.3374
    20.2598  20.8272  22.7154  23.4267  24.9857  25.3348  25.4547  26.8671
    29.4484  31.0148

          k = 0.2307 0.4615-0.9072 (  1076 PWs)   bands (ev):

     0.6716   1.0636   3.7740   5.5483   6.2573   6.3953   6.8051   7.6637
     7.9053   8.9076   9.2620   9.3813  13.6769  13.9991  16.8442  18.5769
    19.7489  19.8314  21.9962  24.3882  24.6933  24.9450  25.5311  25.8678
    29.8730  31.0603

          k = 0.2307-0.6922 0.0000 (  1068 PWs)   bands (ev):

     0.9732   0.9748   3.3293   3.3328   6.9363   6.9371   7.2428   7.2467
     8.0465   8.0481   8.3217   8.3224  12.4711  12.4901  20.2828  20.2877
    22.5939  22.5940  22.6099  22.6265  25.5356  25.5363  27.9427  27.9565
    29.5671  29.5833

          k = 0.2307-0.6922 0.3024 (  1060 PWs)   bands (ev):

     1.0076   1.0085   3.5888   3.5970   6.7311   6.7381   7.2323   7.2326
     7.8401   7.8432   8.8965   8.8982  12.9777  12.9869  19.8597  19.8675
    21.4176  21.4189  22.6158  22.6181  25.7214  25.7217  27.2049  27.2150
    30.0037  30.0208

          k = 0.2307-0.6922 0.6048 (  1076 PWs)   bands (ev):

     0.8926   0.8937   4.2241   4.2371   6.5389   6.5492   7.3371   7.3441
     7.8154   7.8178   9.2319   9.2351  13.9186  13.9293  17.8171  17.8226
    20.4806  20.4815  22.7385  22.7410  25.3004  25.3005  26.1302  26.1315
    30.7488  30.7596

          k = 0.2307-0.6922-0.9072 (  1080 PWs)   bands (ev):

     0.7948   0.7956   4.5967   4.5974   6.4325   6.4328   7.7127   7.7127
     7.9097   7.9098   9.2987   9.2987  14.1665  14.1668  17.0592  17.0595
    19.5417  19.5419  23.4480  23.4481  24.8740  24.8740  25.5691  25.5692
    31.0914  31.0918

          k = 0.4615 0.4615 0.0000 (  1068 PWs)   bands (ev):

     0.4108   1.0461   3.2008   5.9600   6.0050   6.5952   6.8644   7.5786
     7.8005   7.8005   8.3215   8.7911  10.4987  12.7520  20.5864  21.3027
    21.4749  22.0059  23.1972  23.4560  26.3077  26.5433  27.1829  27.7668
    28.5290  29.6505

          k = 0.4615 0.4615 0.3024 (  1063 PWs)   bands (ev):

     0.6451   1.0733   3.4724   4.7708   6.4910   6.7964   6.8670   7.5202
     7.6646   7.8354   8.8613   9.9727  10.5246  13.1423  19.4969  20.2262
    21.4778  21.8222  22.6439  23.3528  25.8085  26.3472  27.1592  28.0138
    28.3256  30.2281

          k = 0.4615 0.4615 0.6048 (  1075 PWs)   bands (ev):

     0.9038   1.0928   3.6403   4.1274   6.6526   6.8029   7.3124   7.6708
     7.8862   8.0193   9.2419  10.2908  11.9981  13.9247  16.8877  17.8348
    20.2608  20.5761  22.8563  24.3021  25.5802  25.8632  26.0940  27.7289
    28.8578  30.6274

          k = 0.4615 0.4615-0.9072 (  1084 PWs)   bands (ev):

     0.7919   1.3004   3.2189   4.4875   6.5211   6.7377   7.6947   7.8242
     7.8979   9.1595   9.2793   9.9473  13.1516  13.8664  15.7199  16.9362
    19.0503  19.1988  23.7303  25.2024  25.2612  25.3102  26.3354  26.8541
    29.0522  30.8190

          k = 0.4615-0.6922 0.0000 (  1066 PWs)   bands (ev):

     0.6212   0.6223   4.5651   4.5694   6.6595   6.6600   7.0912   7.0921
     7.7048   7.7067   8.6601   8.6607  11.2412  11.2502  21.1214  21.1245
    22.2165  22.2250  22.9716  22.9742  26.3799  26.3801  28.2899  28.2991
    28.2997  28.3064

          k = 0.4615-0.6922 0.3024 (  1072 PWs)   bands (ev):

     0.7889   0.7897   4.2729   4.2794   6.5414   6.5469   7.2209   7.2218
     7.7336   7.7361   9.3917   9.3948  11.4799  11.4824  20.1163  20.1220
    21.5860  21.5872  22.9008  22.9024  26.2482  26.2498  27.7585  27.7667
    29.0391  29.0522

          k = 0.4615-0.6922 0.6048 (  1066 PWs)   bands (ev):

     1.0517   1.0527   3.7481   3.7532   6.7888   6.7907   7.7554   7.7573
     7.8561   7.8597   9.8029   9.8112  12.6814  12.6911  17.1146  17.1164
    20.1922  20.1932  23.9950  24.0004  25.9318  25.9333  27.0361  27.0388
    29.8023  29.8109

          k = 0.4615-0.6922-0.9072 (  1068 PWs)   bands (ev):

     1.1202   1.1210   3.5890   3.5892   6.7019   6.7022   7.8124   7.8129
     9.0737   9.0738   9.5038   9.5039  13.6199  13.6202  15.4907  15.4911
    18.8692  18.8694  25.4833  25.4833  25.6626  25.6627  26.1462  26.1463
    30.0767  30.0773

          k =-0.6922-0.6922 0.0000 (  1084 PWs)   bands (ev):

     0.4845   0.4853   5.9480   5.9828   6.0116   6.0463   6.5144   6.5145
     7.5926   7.5931   8.7444   8.7447  10.7557  10.7558  20.9624  20.9624
    22.0269  22.0272  24.0637  24.0640  26.6626  26.6627  27.3470  27.3476
    28.4045  28.4045

          k =-0.6922-0.6922 0.3024 (  1064 PWs)   bands (ev):

     0.7084   0.7092   4.6802   4.6808   6.5273   6.5275   7.1073   7.1075
     7.6955   7.6960   9.9130   9.9134  10.6047  10.6052  20.2074  20.2074
    21.1151  21.1152  23.8325  23.8329  26.5814  26.5814  28.0767  28.0777
    28.2157  28.2172

          k =-0.6922-0.6922 0.6048 (  1080 PWs)   bands (ev):

     1.1242   1.1252   3.5266   3.5267   6.9188   6.9192   7.7291   7.7296
     7.9792   7.9793  10.3679  10.3683  11.8354  11.8362  16.8837  16.8838
    19.8825  19.8827  24.7064  24.7065  26.2986  26.2986  27.5622  27.5626
    28.9971  28.9980

          k =-0.6922-0.6922-0.9072 (  1072 PWs)   bands (ev):

     1.3453   1.3463   3.1193   3.1193   6.8436   6.8440   7.7905   7.7910
     9.0898   9.0899  10.3568  10.3569  13.0296  13.0301  14.8544  14.8547
    18.6272  18.6274  26.0314  26.0314  26.1945  26.1946  26.9454  26.9461
    29.1193  29.1204

          k = 0.2307-0.2307 0.0000 (  1064 PWs)   bands (ev):

     0.2472   0.7814   3.1594   5.9252   6.0214   6.6803   7.0470   7.4694
     8.0911   8.1001   8.2119   8.8043   9.6173  15.8825  18.5880  20.0639
    21.6070  22.2574  22.7715  24.8810  26.3753  26.5079  26.6869  27.8428
    28.7461  31.1348

          k = 0.2307-0.2307 0.3024 (  1064 PWs)   bands (ev):

     0.5031   0.8550   3.4776   5.0448   6.1264   6.4752   6.8932   7.5969
     7.6042   8.0934   8.7905  10.1140  10.1965  15.8722  17.5909  19.4518
    21.9713  22.3737  22.9505  24.5300  25.3778  26.1467  26.4018  27.0857
    28.2664  30.9150

          k = 0.2307-0.2307 0.6048 (  1069 PWs)   bands (ev):

     0.8245   0.9989   3.8611   4.4501   6.0163   6.7331   7.0964   7.4400
     7.8307   7.9450   9.0927  10.5758  12.2857  14.2820  17.3934  19.6523
    20.6865  21.3228  23.2849  23.8731  24.6680  24.9146  25.2074  27.4513
    27.7305  30.3257

          k = 0.2307-0.2307-0.9072 (  1068 PWs)   bands (ev):

     0.7719   1.2129   3.4696   4.9641   6.5529   6.6897   6.8376   7.5158
     7.8202   8.7243   9.3562   9.6857  13.4479  13.8210  17.3349  19.2054
    20.3623  20.5102  22.2952  23.8508  24.2312  24.8518  25.6859  26.6563
    28.1129  30.1485

          k = 0.4615-0.2307 0.0000 (  1067 PWs)   bands (ev):

     0.4889   1.3120   2.5205   4.7605   6.6263   6.7402   7.1596   7.7810
     7.7945   8.0076   8.1332   8.6368  10.6694  14.5484  19.0367  21.1140
    21.2278  22.1338  23.1414  24.0858  25.5757  26.0107  27.5395  28.0553
    28.4685  30.6222

          k = 0.4615-0.2307 0.3024 (  1066 PWs)   bands (ev):

     0.6827   1.1656   3.0767   4.5019   6.4265   6.7918   6.9966   7.4731
     7.6763   7.9366   8.6323   9.4400  11.2841  14.8710  18.7688  19.3926
    21.8145  22.0333  22.3787  23.7244  25.5041  25.7923  26.6330  27.7394
    28.6903  30.8352

          k = 0.4615-0.2307 0.6048 (  1072 PWs)   bands (ev):

     0.8246   0.9867   3.9348   4.4694   6.3007   6.8086   6.8654   7.5992
     7.8056   7.9511   9.0963   9.8081  12.7615  14.6360  17.8335  18.3375
    20.2594  20.8274  22.7154  23.4268  24.9857  25.3346  25.4549  26.8669
    29.4488  31.0145

          k = 0.4615-0.2307-0.9072 (  1076 PWs)   bands (ev):

     0.6722   1.0628   3.7738   5.5509   6.2552   6.3956   6.8045   7.6632
     7.9056   8.9077   9.2620   9.3813  13.6774  13.9989  16.8445  18.5767
    19.7486  19.8315  21.9963  24.3882  24.6933  24.9451  25.5309  25.8677
    29.8736  31.0599

          k = 0.4615-0.4615 0.0000 (  1068 PWs)   bands (ev):

     0.4102   1.0469   3.2010   5.9356   6.0290   6.5952   6.8644   7.5791
     7.7961   7.8046   8.3219   8.7907  10.4987  12.7520  20.5862  21.3028
    21.4750  22.0058  23.1971  23.4564  26.3077  26.5427  27.1836  27.7667
    28.5290  29.6502

          k = 0.4615-0.4615 0.3024 (  1063 PWs)   bands (ev):

     0.6445   1.0741   3.4725   4.7703   6.4910   6.7964   6.8673   7.5203
     7.6644   7.8356   8.8613   9.9722  10.5251  13.1421  19.4970  20.2260
    21.4778  21.8222  22.6436  23.3532  25.8086  26.3471  27.1592  28.0138
    28.3258  30.2279

          k = 0.4615-0.4615 0.6048 (  1075 PWs)   bands (ev):

     0.9046   1.0919   3.6401   4.1278   6.6529   6.8027   7.3124   7.6703
     7.8865   8.0194   9.2418  10.2904  11.9987  13.9246  16.8876  17.8349
    20.2610  20.5758  22.8563  24.3022  25.5803  25.8631  26.0941  27.7282
    28.8587  30.6270

          k = 0.4615-0.4615-0.9072 (  1084 PWs)   bands (ev):

     0.7926   1.2993   3.2189   4.4881   6.5215   6.7374   7.6942   7.8237
     7.8982   9.1596   9.2792   9.9472  13.1522  13.8662  15.7201  16.9359
    19.0504  19.1986  23.7303  25.2024  25.2607  25.3109  26.3353  26.8534
    29.0532  30.8186

     highest occupied level (ev):    31.4959

!    total energy              =    -441.20634542 Ry
     Harris-Foulkes estimate   =    -441.20634542 Ry
     estimated scf accuracy    <          2.4E-13 Ry

     The total energy is the sum of the following terms:

     one-electron contribution =      29.97790275 Ry
     hartree contribution      =      61.36429084 Ry
     xc contribution           =    -127.52231514 Ry
     ewald contribution        =    -405.02622387 Ry

     convergence has been achieved in  13 iterations

     Forces acting on atoms (cartesian axes, Ry/au):

     atom    1 type  1   force =     0.05568421    0.05568421    0.00000000
     atom    2 type  1   force =     0.00856062    0.00856062    0.00000000
     atom    3 type  2   force =     0.65227980   -0.64811635    0.00000000
     atom    4 type  2   force =    -0.64811635    0.65227980    0.00000000
     atom    5 type  2   force =     0.61632612    0.61632612    0.00000000
     atom    6 type  2   force =    -0.68473440   -0.68473440    0.00000000

     Total force =     1.842507     Total SCF correction =     0.000002


     Computing stress (Cartesian axis) and pressure

          total   stress  (Ry/bohr**3)                   (kbar)     P= 6240.84
   0.05509828   0.00000383   0.00000000       8105.24      0.56      0.00
   0.00000383   0.05509828   0.00000000          0.56   8105.24      0.00
   0.00000000   0.00000000   0.01707665          0.00      0.00   2512.06


     number of scf cycles    =   3
     number of bfgs steps    =   2

     enthalpy old            =    -439.4922201030 Ry
     enthalpy new            =    -441.2063454190 Ry

     CASE: enthalpy_new < enthalpy_old

     new trust radius        =       0.6925733768 bohr
     new conv_thr            =            1.0E-12 Ry

     new unit-cell volume =    232.52014 a.u.^3 (    34.45593 Ang^3 )
     density =     14.52618 g/cm^3

CELL_PARAMETERS (alat=  9.11000000)
   0.853966111   0.000000000   0.000000000
   0.000000000   0.853966111   0.000000000
   0.000000000   0.000000000   0.421719970

ATOMIC_POSITIONS (crystal)
Sn       0.001759640   0.001759640   0.000000000
Sn       0.499830249   0.499830249   0.500000000
O        0.823318385   0.175649145   0.500000000
O        0.175649145   0.823318385   0.500000000
O        0.322570044   0.322570044   0.000000000
[...]
    22.8678  23.0210

          k = 0.0000 0.2134 0.0000 (  1065 PWs)   bands (ev):

    -2.4320   0.5954   0.8583   1.4791   2.8771   3.2448   3.7223   3.9355
     4.0014   4.0353   4.8625   4.9859   7.5641  11.0779  14.7554  16.0828
    17.4365  17.8566  19.0464  21.6748  22.7326  23.1010  23.6982  24.3194
    24.9040  25.1833

          k = 0.0000 0.2134 0.3069 (  1067 PWs)   bands (ev):

    -2.0013   0.5661   0.8869   1.4726   2.3797   3.3187   3.5734   3.6292
     4.0747   4.4475   4.7431   5.9566   8.1662  10.6915  14.1901  16.4707
    17.0247  18.2383  19.8738  20.3615  21.3844  21.7567  23.5639  24.6395
    24.9721  25.0863

          k = 0.0000 0.2134 0.6138 (  1073 PWs)   bands (ev):

    -1.2628   0.1011   1.0829   1.3627   2.9746   3.2781   3.4831   4.0247
     4.0900   4.2570   4.5111   7.2212   9.1110   9.4573  14.0021  16.4604
    17.3206  18.0127  18.6769  19.5008  20.8675  21.7012  22.7056  23.5311
    24.0038  24.8953

          k = 0.0000 0.2134-0.9208 (  1066 PWs)   bands (ev):

    -1.1786   0.3117   1.0625   1.3129   3.3831   3.4008   3.7905   4.0039
     4.3093   4.3779   5.0106   6.0766   9.4709  10.0037  14.6500  15.1364
    16.7156  17.3318  19.6484  19.9200  20.3248  21.5753  22.5558  23.0222
    23.7387  24.1571

          k = 0.0000 0.4268 0.0000 (  1070 PWs)   bands (ev):

    -1.9623  -0.0693   0.8828   1.6129   2.9504   3.2549   3.6962   3.7677
     3.9245   4.0002   4.8260   4.8814   7.8222  10.2934  14.6282  16.1541
    18.1050  18.2264  19.9309  21.2273  21.5667  22.4941  23.7386  24.5247
    24.7387  25.3347

          k = 0.0000 0.4268 0.3069 (  1069 PWs)   bands (ev):

    -1.5838  -0.1469   1.0891   1.5394   2.6471   3.3307   3.5580   3.6737
     4.1620   4.2781   4.6709   5.4536   8.4093  10.3020  14.6261  16.3279
    16.8066  18.3114  18.9064  20.8072  21.8362  22.1210  23.6443  24.2992
    24.9124  25.1536

          k = 0.0000 0.4268 0.6138 (  1069 PWs)   bands (ev):

    -1.4043   0.3712   1.1259   1.5002   2.8264   3.3211   3.6020   3.9659
     4.2871   4.4573   4.6281   6.1930   8.8549  10.3318  14.4281  15.6675
    16.3979  17.7235  18.1711  19.6767  20.5985  22.2353  23.4849  23.9007
    24.3881  25.4939

          k = 0.0000 0.4268-0.9208 (  1076 PWs)   bands (ev):

    -1.5649   0.8918   1.1987   1.2516   3.2387   3.5868   3.5923   4.1028
     4.1279   4.6220   4.6742   6.1020   8.6802  10.4471  14.6245  14.9511
    16.0853  17.0972  18.6574  19.1930  20.5460  21.4071  22.9750  23.5291
    24.8827  25.5298

          k = 0.0000-0.6401 0.0000 (  1078 PWs)   bands (ev):

    -1.5126  -0.6735   1.0096   1.6679   2.9702   3.2045   3.6310   3.7203
     3.8849   3.9511   4.5259   4.8077   8.7186   9.2895  14.7317  15.7518
    18.8684  18.9207  20.2436  20.7323  20.9235  21.8407  23.7553  24.6272
    24.8081  25.3366

          k = 0.0000-0.6401 0.3069 (  1056 PWs)   bands (ev):

    -1.1344  -0.6876   1.2278   1.5872   2.8248   3.4046   3.6214   3.6919
     4.1891   4.4820   4.5826   5.0777   9.1043   9.6860  14.9246  15.9904
    16.8830  18.1219  19.4788  20.0915  22.1432  22.7694  23.2566  24.2387
    25.0430  25.1544

          k = 0.0000-0.6401 0.6138 (  1086 PWs)   bands (ev):

    -1.4931   0.4279   1.0718   1.7188   2.5847   3.3048   3.6187   3.8560
     4.4269   4.5303   4.5950   5.5364   8.7168  10.6921  14.5580  15.3049
    16.0100  17.3090  18.1852  19.4326  20.7654  22.2398  23.6974  24.0800
    24.9491  25.4693

          k = 0.0000-0.6401-0.9208 (  1096 PWs)   bands (ev):

    -1.7317   0.8041   1.1669   1.7842   2.9854   3.3471   3.6284   3.7916
     4.1469   4.5301   4.7775   6.0861   8.2276  10.6431  14.6248  14.8908
    15.8091  16.8170  18.2382  18.8552  20.6094  21.3241  23.1782  23.8974
    25.2577  26.0398

          k = 0.2134 0.2134 0.0000 (  1064 PWs)   bands (ev):

    -2.1111   0.1426   0.6936   1.4940   2.9981   3.2743   3.6898   3.7911
     3.9322   3.9677   5.0221   5.7028   7.2338  10.6027  14.7004  16.4797
    17.8331  17.8762  18.6272  21.9591  22.4332  23.1977  23.5091  23.5901
    25.1213  25.4010

          k = 0.2134 0.2134 0.3069 (  1064 PWs)   bands (ev):

    -1.7249   0.0447   0.9364   1.4919   2.6891   3.4006   3.5191   3.6263
     4.0716   4.2766   4.6542   6.3512   7.8527  10.6331  14.3730  16.1431
    16.9654  18.9602  19.6516  19.8608  20.8140  22.0242  24.2663  24.5234
    24.9093  25.1737

          k = 0.2134 0.2134 0.6138 (  1069 PWs)   bands (ev):

    -1.4335   0.4252   1.2866   1.3961   2.7965   3.2912   3.3862   3.9879
     4.1354   4.2857   4.6260   6.8666   8.8816  10.1997  14.1899  15.8665
    16.7964  17.3924  18.7583  20.1815  20.8113  21.2907  23.4149  23.4329
    24.6835  24.9501

          k = 0.2134 0.2134-0.9208 (  1068 PWs)   bands (ev):

    -1.5518   1.0398   1.2336   1.3090   3.2806   3.3109   3.4829   4.0009
     4.1845   4.6512   4.6882   6.1432   9.4021  10.4902  14.0040  14.9992
    16.6573  16.9901  18.9064  19.6196  21.1564  21.7006  22.9890  23.3562
    23.7149  24.6005

          k = 0.2134 0.4268 0.0000 (  1067 PWs)   bands (ev):

    -1.5956  -0.5983   0.9104   1.7115   3.0320   3.2706   3.6601   3.7202
     3.8640   3.9281   4.9608   5.5547   7.4923   9.4795  15.0233  16.5447
    17.8205  18.6492  19.5412  21.2980  21.8567  22.7905  23.3867  23.8292
    24.9817  25.4733

          k = 0.2134 0.4268 0.3069 (  1066 PWs)   bands (ev):

    -1.2505  -0.5815   1.1307   1.6288   2.7817   3.4177   3.5789   3.6305
     3.9863   4.1605   4.6497   6.0605   7.9891   9.8612  14.9897  15.7439
    17.5337  18.5630  19.0297  20.3620  21.1073  22.1493  24.3370  24.4468
    24.8649  25.1764

          k = 0.2134 0.4268 0.6138 (  1072 PWs)   bands (ev):

    -1.4777   0.4369   1.2875   1.6232   2.6429   3.3368   3.5608   4.0315
     4.0995   4.3414   4.6233   6.4667   8.5700  10.4579  14.0985  15.3673
    16.1080  17.2452  18.9266  19.7238  20.7293  22.1718  23.5958  24.1670
    24.7303  25.4897

          k = 0.2134 0.4268-0.9208 (  1076 PWs)   bands (ev):

    -1.7070   0.9428   1.2439   1.7865   3.0771   3.3244   3.4196   4.0564
     4.0832   4.5715   4.8543   6.2975   8.8133  10.7086  13.5417  14.6740
    16.1628  16.2909  18.6010  20.2585  20.8239  21.7008  23.5302  23.7028
    24.5998  25.3763

          k = 0.2134-0.6401 0.0000 (  1068 PWs)   bands (ev):

    -1.6894  -0.4231   1.1626   1.8130   2.9399   3.2448   3.7033   3.8160
     3.8203   3.9804   4.7714   4.9383   8.0748   8.7340  15.2931  16.0871
    18.9311  18.9787  20.2129  20.9008  21.4423  21.9515  23.6320  23.8991
    25.0398  25.3869

          k = 0.2134-0.6401 0.3069 (  1060 PWs)   bands (ev):

    -1.3216  -0.4472   1.3204   1.6640   2.6753   3.4576   3.5901   3.6902
     4.1605   4.4472   4.6117   5.3452   8.6168   8.9888  15.1476  16.1069
    17.2227  18.5069  19.5464  20.0409  21.6229  22.7592  23.8098  24.2084
    24.7768  25.2621

          k = 0.2134-0.6401 0.6138 (  1076 PWs)   bands (ev):

    -1.3821   0.2870   1.1494   1.4761   2.8656   3.4020   3.7034   3.8937
     4.3470   4.4298   4.7945   5.9187   8.5924  10.1066  13.8566  15.0275
    16.4969  17.5112  18.4614  19.4648  21.3375  22.2914  23.6790  24.2781
    25.0718  25.3848

          k = 0.2134-0.6401-0.9208 (  1080 PWs)   bands (ev):

    -1.5863   0.8671   1.1529   1.2065   3.2664   3.6434   3.7806   4.0559
     4.1254   4.5973   4.8378   6.4956   8.2292  10.4201  13.7968  14.1383
    15.7347  16.4420  19.1391  19.5253  21.2525  21.5399  23.6278  23.8759
    25.3001  25.7147

          k = 0.4268 0.4268 0.0000 (  1068 PWs)   bands (ev):

    -1.5851  -0.5613   1.1731   1.9696   2.8722   3.2290   3.6630   3.7635
     3.8829   3.8887   4.9513   6.1127   6.7060   8.1228  15.6076  17.1560
    17.8308  19.0905  20.1096  20.9405  22.3144  22.6903  23.2091  23.2222
    24.7284  25.4254

          k = 0.4268 0.4268 0.3069 (  1063 PWs)   bands (ev):

    -1.2026  -0.5769   1.3144   1.8008   2.6803   3.5189   3.5780   3.6780
     3.9042   4.3150   4.6512   6.8718   6.9061   8.6715  15.3012  16.1724
    17.9677  18.2602  19.9126  20.0318  21.1361  22.2548  24.0595  24.3732
    25.1430  25.1507

          k = 0.4268 0.4268 0.6138 (  1075 PWs)   bands (ev):

    -1.3817   0.2597   1.3301   1.4324   2.8226   3.3608   3.8406   3.9593
     4.1475   4.2850   4.6936   6.8970   8.1053   9.7665  13.5251  14.6197
    16.7257  16.8273  19.1025  20.3299  21.6217  22.0193  23.4179  24.5583
    25.3169  25.3313

          k = 0.4268 0.4268-0.9208 (  1084 PWs)   bands (ev):

    -1.6191   0.9636   1.1105   1.2358   3.3267   3.3470   3.9964   4.0332
     4.0626   4.4268   4.8562   6.7241   8.7151  10.4256  12.4575  13.9673
    15.4111  15.7217  19.6332  21.1678  21.6342  21.8641  23.2030  24.7015
    24.7755  24.9676

          k = 0.4268-0.6401 0.0000 (  1066 PWs)   bands (ev):

    -1.9113  -0.1006   1.6181   2.1273   2.8044   3.1767   3.6354   3.6802
     3.8851   4.0172   4.9572   5.1973   6.9355   7.6903  15.4317  17.4575
    18.9565  18.9610  20.7058  21.1411  22.0096  22.3033  22.8450  23.3654
    24.6702  25.3279

          k = 0.4268-0.6401 0.3069 (  1072 PWs)   bands (ev):

    -1.5390  -0.1585   1.4848   1.8525   2.4591   3.4929   3.5329   3.6591
     3.9665   4.5771   4.8004   5.8373   7.4319   7.8676  15.2280  16.2974
    18.2313  18.4842  20.0423  20.4236  21.2990  22.5155  23.5166  24.0659
    24.8556  25.3394

          k = 0.4268-0.6401 0.6138 (  1066 PWs)   bands (ev):

    -1.0993  -0.0825   1.1390   1.4051   3.1092   3.4563   3.8534   4.0066
     4.2213   4.3083   5.4194   6.6187   8.1524   8.9428  13.4550  14.1512
    16.6457  17.2564  19.3568  20.7166  21.7514  22.5701  23.3585  24.2135
    25.3410  25.5545

          k = 0.4268-0.6401-0.9208 (  1068 PWs)   bands (ev):

    -1.2348   0.2908   0.9878   1.2241   3.4093   3.5801   3.8625   4.1158
     4.5137   4.8350   5.2182   7.0935   8.3064   9.7354  12.4482  13.5882
    14.9541  15.7411  20.7700  20.8944  21.9514  22.1574  23.5166  24.0500
    25.1817  25.4853

          k =-0.6401-0.6401 0.0000 (  1084 PWs)   bands (ev):

    -1.9935   0.0046   1.9824   2.2603   2.6652   3.0274   3.5582   3.5765
     3.7726   3.9290   4.8269   5.4592   6.3331   7.1304  15.3517  18.4725
    18.7671  18.9744  21.0679  21.2182  21.8427  22.4897  22.6911  23.1837
    24.2069  25.1891

          k =-0.6401-0.6401 0.3069 (  1064 PWs)   bands (ev):

    -1.6034  -0.0289   1.5951   1.9975   2.3576   3.5159   3.5396   3.7258
     3.9336   4.6458   5.2036   6.4707   6.5327   7.2118  15.2307  16.4074
    18.1958  18.8442  20.2812  21.2106  21.3871  22.1479  23.4052  23.4345
    25.1163  25.4188

          k =-0.6401-0.6401 0.6138 (  1080 PWs)   bands (ev):

    -0.8559  -0.4448   1.0548   1.4370   3.1165   3.4375   3.9078   4.0448
     4.1058   4.1529   5.8601   6.8884   7.7126   8.3349  13.3649  13.7894
    16.4745  17.0138  19.9536  21.5660  21.9109  22.5847  23.0206  23.7170
    25.5403  25.6781

          k =-0.6401-0.6401-0.9208 (  1072 PWs)   bands (ev):

    -0.8512  -0.3226   1.0355   1.2322   3.4825   3.5022   3.8833   4.1388
     4.3933   4.7574   5.7995   7.2782   8.4423   9.2322  11.8749  13.4255
    14.5408  15.4143  21.8622  21.9953  22.0666  22.5093  22.8569  23.3456
    25.2573  25.6258

          k = 0.2134-0.2134 0.0000 (  1064 PWs)   bands (ev):

    -2.4464   0.6038   1.0257   1.7923   2.8381   3.2506   3.6928   3.9436
     4.0898   4.0977   4.4070   4.9028   7.2072  10.8373  14.9521  16.0983
    17.5224  18.4277  19.4302  21.7274  22.4107  22.5552  24.0129  24.1582
    24.9060  25.0781

          k = 0.2134-0.2134 0.3069 (  1064 PWs)   bands (ev):

    -1.9973   0.5741   1.0167   1.6558   2.2183   3.3007   3.5789   3.7375
     4.2874   4.3656   4.7676   5.7815   7.7018  10.4381  14.5787  16.2057
    17.2565  18.6268  19.5657  20.2707  21.8950  22.3234  23.1675  24.4456
    24.7033  25.2311

          k = 0.2134-0.2134 0.6138 (  1069 PWs)   bands (ev):

    -1.0607  -0.1860   1.0973   1.2862   3.1243   3.3478   3.6047   3.9562
     4.1777   4.4431   4.5860   7.4848   8.5866   9.1367  14.0303  16.2956
    17.0734  17.9897  18.9649  19.5030  21.2928  21.5001  23.0092  23.6237
    24.1274  25.0729

          k = 0.2134-0.2134-0.9208 (  1068 PWs)   bands (ev):

    -0.6982  -0.3914   0.9830   1.3029   3.4543   3.6412   3.6519   4.0618
     4.3500   4.5610   5.3592   6.1680   9.0363   9.6400  14.1968  15.2673
    16.3781  17.8064  18.6994  19.6398  21.1676  21.8937  22.7502  22.9635
    24.1134  24.6021

          k = 0.4268-0.2134 0.0000 (  1067 PWs)   bands (ev):

    -2.1674   0.2540   1.1756   1.8152   2.8622   3.2425   3.6776   3.9079
     3.9951   4.0105   4.4657   4.8862   7.1702   9.9015  15.0408  16.3553
    18.1331  18.9132  20.1864  21.3349  21.7151  22.1915  23.7216  23.8482
    25.0651  25.2379

          k = 0.4268-0.2134 0.3069 (  1066 PWs)   bands (ev):

    -1.7514   0.1589   1.2584   1.6466   2.4079   3.3553   3.5705   3.6770
     4.2601   4.4094   4.8121   5.3442   7.7528   9.8180  14.9500  16.0763
    17.4944  18.6968  19.1899  20.3202  21.8276  22.9740  23.5161  23.8346
    24.6122  25.3015

          k = 0.4268-0.2134 0.6138 (  1072 PWs)   bands (ev):

    -1.1638  -0.0166   1.1033   1.2933   3.0774   3.4369   3.6647   3.8742
     4.2545   4.4967   4.9309   6.3980   8.7391   9.3717  13.9266  15.4598
    16.8448  17.7490  18.8879  19.2394  21.6096  21.8552  23.4495  24.1091
    24.5843  25.3278

          k = 0.4268-0.2134-0.9208 (  1076 PWs)   bands (ev):

    -1.2115   0.2862   0.8884   1.2383   3.3534   3.6693   3.7327   4.0736
     4.5950   4.6352   5.0077   6.3690   8.4255   9.8337  13.9770  14.3634
    16.1803  17.1994  18.6138  19.4547  21.6571  21.7022  23.2234  23.3912
    25.0991  25.2701

          k = 0.4268-0.4268 0.0000 (  1068 PWs)   bands (ev):

    -2.1437   0.1999   1.6216   2.1100   2.7791   3.1720   3.6338   3.7922
     3.8593   4.0387   4.6298   4.9283   6.5715   8.8198  15.2206  17.1906
    18.4366  19.5834  20.5640  21.5324  21.5676  22.1476  22.7800  23.5889
    25.0112  25.2270

          k = 0.4268-0.4268 0.3069 (  1063 PWs)   bands (ev):

    -1.7205   0.1466   1.5121   1.7612   2.3614   3.4584   3.5832   3.6936
     4.1411   4.5094   5.1340   5.4322   6.9884   8.9002  15.1868  15.9279
    18.4952  18.9890  19.5834  20.2187  21.3250  23.0740  23.3695  24.2251
    24.3886  25.3258

          k = 0.4268-0.4268 0.6138 (  1075 PWs)   bands (ev):

    -0.9145  -0.3594   1.1094   1.2878   3.1942   3.4994   3.7393   3.8601
     4.1853   4.4249   5.4987   6.5595   8.1943   8.8121  13.6105  14.4497
    16.7385  17.9439  18.9014  20.4453  21.4918  22.3838  23.6034  24.0251
    24.8686  25.4637

          k = 0.4268-0.4268-0.9208 (  1084 PWs)   bands (ev):

    -0.8040  -0.3762   0.9042   1.2214   3.4186   3.6139   3.7027   4.0119
     4.5539   4.6601   5.5845   6.9000   8.1283   9.3414  13.1983  13.6011
    15.3731  16.3890  19.6583  20.4284  22.2355  22.5032  23.3455  23.4855
    24.9044  25.4659

     highest occupied level (ev):    26.0398

!    total energy              =    -442.67086372 Ry
     Harris-Foulkes estimate   =    -442.67086372 Ry
     estimated scf accuracy    <          1.1E-13 Ry

     The total energy is the sum of the following terms:

     one-electron contribution =      12.75528451 Ry
     hartree contribution      =      61.96797119 Ry
     xc contribution           =    -125.33695400 Ry
     ewald contribution        =    -392.05716543 Ry

     convergence has been achieved in   9 iterations

     Forces acting on atoms (cartesian axes, Ry/au):

     atom    1 type  1   force =     0.00018602    0.00018602    0.00000000
     atom    2 type  1   force =     0.00172770    0.00172770    0.00000000
     atom    3 type  2   force =    -0.00006655   -0.00037832    0.00000000
     atom    4 type  2   force =    -0.00037832   -0.00006655    0.00000000
     atom    5 type  2   force =    -0.00029088   -0.00029088    0.00000000
     atom    6 type  2   force =    -0.00117796   -0.00117796    0.00000000

     Total force =     0.003046     Total SCF correction =     0.000001


     Computing stress (Cartesian axis) and pressure

          total   stress  (Ry/bohr**3)                   (kbar)     P=    0.15
   0.00001913   0.00715094   0.00000000          2.81   1051.94      0.00
   0.00715094   0.00001913   0.00000000       1051.94      2.81      0.00
   0.00000000   0.00000000  -0.00003522          0.00      0.00     -5.18


     number of scf cycles    =  50
     number of bfgs steps    =  43

     enthalpy old            =    -442.6708346133 Ry
     enthalpy new            =    -442.6708637239 Ry

     CASE: enthalpy_new < enthalpy_old

     new trust radius        =       0.0008284074 bohr
     new conv_thr            =            1.0E-12 Ry

     new unit-cell volume =    250.49335 a.u.^3 (    37.11928 Ang^3 )
     density =     13.48391 g/cm^3

CELL_PARAMETERS (alat=  9.11000000)
   0.781141562   0.000000000   0.000000000
   0.000000000   0.781141562   0.000000000
   0.000000000   0.000000000   0.542977174

ATOMIC_POSITIONS (crystal)
Sn       0.046597129   0.046596917   0.000000000
Sn       0.555462621   0.555462621   0.500000000
O        0.703260464   0.115879098   0.500000000
O        0.115879098   0.703260599   0.500000000
O        0.343998639   0.343998645   0.000000000
O        0.732801911   0.732801911   0.000000000



     Writing output data file SnO2.save
     NEW-OLD atomic charge density approx. for the potential

     Check: negative/imaginary core charge=   -0.000687    0.000000
     extrapolated charge   52.00114, renormalised to   52.00000

     Writing output data file SnO2.save
 
     init_run     :      1.07s CPU      1.12s WALL (       1 calls)
     electrons    :   1214.53s CPU   1273.61s WALL (      50 calls)
     update_pot   :     15.93s CPU     16.29s WALL (      50 calls)
     forces       :     18.04s CPU     18.56s WALL (      50 calls)
     stress       :     44.58s CPU     45.48s WALL (      50 calls)

     Called by init_run:
     wfcinit      :      0.79s CPU      0.83s WALL (       1 calls)
     potinit      :      0.10s CPU      0.10s WALL (       1 calls)
     hinit0       :      0.17s CPU      0.18s WALL (       1 calls)

     Called by electrons:
     c_bands      :   1088.99s CPU   1139.37s WALL (     508 calls)
     sum_band     :    122.49s CPU    129.12s WALL (     508 calls)
     v_of_rho     :      2.71s CPU      2.78s WALL (     549 calls)
     mix_rho      :      0.41s CPU      0.45s WALL (     508 calls)

     Called by c_bands:
     init_us_2    :      9.97s CPU     18.80s WALL (   58084 calls)
     cegterg      :   1001.93s CPU   1045.93s WALL (   26416 calls)

     Called by sum_band:

     Called by *egterg:
     h_psi        :    740.20s CPU    790.47s WALL (   92610 calls)
     g_psi        :      5.48s CPU      8.77s WALL (   66142 calls)
     cdiaghg      :    125.45s CPU    125.42s WALL (   89490 calls)

     Called by h_psi:
     h_psi:pot    :    738.29s CPU    786.84s WALL (   92610 calls)
     h_psi:calbec :     55.60s CPU     50.59s WALL (   92610 calls)
     vloc_psi     :    668.23s CPU    688.47s WALL (   92610 calls)
     add_vuspsi   :     14.39s CPU     47.49s WALL (   92610 calls)

     General routines
     calbec       :     66.50s CPU     58.50s WALL (  105610 calls)
     fft          :      1.82s CPU      1.75s WALL (    6802 calls)
     ffts         :      0.17s CPU      0.13s WALL (     508 calls)
     fftw         :    778.28s CPU    753.45s WALL ( 4721992 calls)
     davcio       :      0.00s CPU      0.57s WALL (      52 calls)
 
     Parallel routines
     fft_scatt_xy :      8.32s CPU     63.60s WALL ( 4729302 calls)
     fft_scatt_yz :    679.23s CPU    111.81s WALL ( 4729302 calls)
 
     PWSCF        : 21m35.85s CPU    22m49.56s WALL

 
   This run was terminated on:  12:54:17  21Apr2018            

=------------------------------------------------------------------------------=
   JOB DONE.
=------------------------------------------------------------------------------=
