
     Program PWSCF v.6.2.2 starts on  8Apr2018 at 13:31:38 

     This program is part of the open-source Quantum ESPRESSO suite
     for quantum simulation of materials; please cite
         "P. Giannozzi et al., J. Phys.:Condens. Matter 21 395502 (2009);
         "P. Giannozzi et al., J. Phys.:Condens. Matter 29 465901 (2017);
          URL http://www.quantum-espresso.org", 
     in publications or presentations arising from this work. More details at
     http://www.quantum-espresso.org/quote

     Parallel version (MPI), running on     2 processors

     MPI processes distributed on     1 nodes
     R & G space division:  proc/nbgrp/npool/nimage =       2
     Reading input from Conv_acell-kp.in

     Current dimensions of program PWSCF are:
     Max number of different atomic species (ntypx) = 10
     Max number of k-points (npk) =  40000
     Max angular momentum in pseudopotentials (lmaxx) =  3

     Subspace diagonalization in iterative solution of the eigenvalue problem:
     a serial algorithm will be used

 
     Parallelization info
     --------------------
     sticks:   dense  smooth     PW     G-vecs:    dense   smooth      PW
     Min         332     332    110                 4313     4313     791
     Max         333     333    111                 4314     4314     792
     Sum         665     665    221                 8627     8627    1583
 


     bravais-lattice index     =            6
     lattice parameter (alat)  =       9.1100  a.u.
     unit-cell volume          =     506.5589 (a.u.)^3
     number of atoms/cell      =            6
     number of atomic types    =            2
     number of electrons       =        52.00
     number of Kohn-Sham states=           26
     kinetic-energy cutoff     =      25.0000  Ry
     charge density cutoff     =     100.0000  Ry
     convergence threshold     =      1.0E-12
     mixing beta               =       0.7000
     number of iterations used =            8  plain     mixing
     Exchange-correlation      = PBE ( 1  4  3  4 0 0)
     nstep                     =           50


     celldm(1)=   9.110000  celldm(2)=   0.000000  celldm(3)=   0.670000
     celldm(4)=   0.000000  celldm(5)=   0.000000  celldm(6)=   0.000000

     crystal axes: (cart. coord. in units of alat)
               a(1) = (   1.000000   0.000000   0.000000 )  
               a(2) = (   0.000000   1.000000   0.000000 )  
               a(3) = (   0.000000   0.000000   0.670000 )  

     reciprocal axes: (cart. coord. in units 2 pi/alat)
               b(1) = (  1.000000  0.000000  0.000000 )  
               b(2) = (  0.000000  1.000000  0.000000 )  
               b(3) = (  0.000000  0.000000  1.492537 )  


     PseudoPot. # 1 for Sn read from file:
     ../../Pseudo_potentials/Sn_PBE.upf
     MD5 check sum: 78e6386ae56e929f0568ae8bf606a80c
     Pseudo is Norm-conserving + core correction, Zval = 14.0
     Generated using ONCVPSP code by D. R. Hamann
     Using radial grid of 1628 points,  6 beta functions with: 
                l(1) =   0
                l(2) =   0
                l(3) =   1
                l(4) =   1
                l(5) =   2
                l(6) =   2

     PseudoPot. # 2 for O  read from file:
     ../../Pseudo_potentials/O_PBE.upf
     MD5 check sum: 3e3f909f7470e8921608ab6b1f57bbae
     Pseudo is Norm-conserving + core correction, Zval =  6.0
     Generated using ONCVPSP code by D. R. Hamann
     Using radial grid of  936 points,  5 beta functions with: 
                l(1) =   0
                l(2) =   0
                l(3) =   1
                l(4) =   1
                l(5) =   2

     atomic species   valence    mass     pseudopotential
        Sn            14.00   118.71000     Sn( 1.00)
        O              6.00    15.99900     O ( 1.00)

      4 Sym. Ops. (no inversion) found



   Cartesian axes

     site n.     atom                  positions (alat units)
         1           Sn  tau(   1) = (   0.0000000   0.0000000   0.0000000  )
         2           Sn  tau(   2) = (   0.5000000   0.5000000   0.3350000  )
         3           O   tau(   3) = (   0.8060000   0.1930000   0.3350000  )
         4           O   tau(   4) = (   0.1930000   0.8060000   0.3350000  )
         5           O   tau(   5) = (   0.3060000   0.3060000   0.0000000  )
         6           O   tau(   6) = (   0.6930000   0.6930000   0.0000000  )

     number of k points=   186

     Number of k-points >= 100: set verbosity='high' to print them.

     Dense  grid:     8627 G-vectors     FFT dimensions: (  30,  30,  20)

     Estimated max dynamical RAM per process >      49.76 MB

     Estimated total dynamical RAM >      99.52 MB

     Check: negative/imaginary core charge=   -0.002394    0.000000

     Initial potential from superposition of free atoms
     Check: negative starting charge=   -0.009566

     starting charge   51.99690, renormalised to   52.00000

     negative rho (up, down):  9.566E-03 0.000E+00
     Starting wfc are   34 randomized atomic wfcs

     total cpu time spent up to now is        6.0 secs

     Self-consistent Calculation

     iteration #  1     ecut=    25.00 Ry     beta= 0.70
     Davidson diagonalization with overlap
     ethr =  1.00E-02,  avg # of iterations =  2.0

     negative rho (up, down):  2.854E-03 0.000E+00

     total cpu time spent up to now is       20.9 secs

     total energy              =    -429.63251077 Ry
     Harris-Foulkes estimate   =    -432.66131602 Ry
     estimated scf accuracy    <       4.16972504 Ry

     iteration #  2     ecut=    25.00 Ry     beta= 0.70
     Davidson diagonalization with overlap
     ethr =  8.02E-03,  avg # of iterations =  2.0

     negative rho (up, down):  8.831E-04 0.000E+00

     total cpu time spent up to now is       34.8 secs

     total energy              =    -430.40738322 Ry
     Harris-Foulkes estimate   =    -430.54871865 Ry
     estimated scf accuracy    <       0.25018808 Ry

     iteration #  3     ecut=    25.00 Ry     beta= 0.70
     Davidson diagonalization with overlap
     ethr =  4.81E-04,  avg # of iterations =  2.8

     negative rho (up, down):  1.595E-04 0.000E+00

     total cpu time spent up to now is       49.7 secs

     total energy              =    -430.45349093 Ry
     Harris-Foulkes estimate   =    -430.46733790 Ry
     estimated scf accuracy    <       0.02970011 Ry

     iteration #  4     ecut=    25.00 Ry     beta= 0.70
     Davidson diagonalization with overlap
     ethr =  5.71E-05,  avg # of iterations =  2.8

     total cpu time spent up to now is       64.4 secs

     total energy              =    -430.45888125 Ry
     Harris-Foulkes estimate   =    -430.46070196 Ry
     estimated scf accuracy    <       0.00355913 Ry

     iteration #  5     ecut=    25.00 Ry     beta= 0.70
     Davidson diagonalization with overlap
     ethr =  6.84E-06,  avg # of iterations =  3.0

     total cpu time spent up to now is       79.7 secs

     total energy              =    -430.45971654 Ry
     Harris-Foulkes estimate   =    -430.45980378 Ry
     estimated scf accuracy    <       0.00017764 Ry

     iteration #  6     ecut=    25.00 Ry     beta= 0.70
     Davidson diagonalization with overlap
     ethr =  3.42E-07,  avg # of iterations =  3.1

     total cpu time spent up to now is       95.0 secs

     total energy              =    -430.45981016 Ry
     Harris-Foulkes estimate   =    -430.45981758 Ry
     estimated scf accuracy    <       0.00001837 Ry

     iteration #  7     ecut=    25.00 Ry     beta= 0.70
     Davidson diagonalization with overlap
     ethr =  3.53E-08,  avg # of iterations =  3.3

     total cpu time spent up to now is      109.4 secs

     total energy              =    -430.45986209 Ry
     Harris-Foulkes estimate   =    -430.45986351 Ry
     estimated scf accuracy    <       0.00000404 Ry

     iteration #  8     ecut=    25.00 Ry     beta= 0.70
     Davidson diagonalization with overlap
     ethr =  7.78E-09,  avg # of iterations =  2.4

     total cpu time spent up to now is      122.6 secs

     total energy              =    -430.45986226 Ry
     Harris-Foulkes estimate   =    -430.45986249 Ry
     estimated scf accuracy    <       0.00000049 Ry

     iteration #  9     ecut=    25.00 Ry     beta= 0.70
     Davidson diagonalization with overlap
     ethr =  9.35E-10,  avg # of iterations =  3.1

     total cpu time spent up to now is      138.3 secs

     total energy              =    -430.45986236 Ry
     Harris-Foulkes estimate   =    -430.45986240 Ry
     estimated scf accuracy    <       0.00000011 Ry

     iteration # 10     ecut=    25.00 Ry     beta= 0.70
     Davidson diagonalization with overlap
     ethr =  2.13E-10,  avg # of iterations =  3.0

     total cpu time spent up to now is      152.4 secs

     total energy              =    -430.45986237 Ry
     Harris-Foulkes estimate   =    -430.45986238 Ry
     estimated scf accuracy    <       0.00000004 Ry

     iteration # 11     ecut=    25.00 Ry     beta= 0.70
     Davidson diagonalization with overlap
     ethr =  6.74E-11,  avg # of iterations =  2.5

     total cpu time spent up to now is      166.0 secs

     total energy              =    -430.45986237 Ry
     Harris-Foulkes estimate   =    -430.45986237 Ry
     estimated scf accuracy    <          1.1E-09 Ry

     iteration # 12     ecut=    25.00 Ry     beta= 0.70
     Davidson diagonalization with overlap
     ethr =  2.14E-12,  avg # of iterations =  3.2

     total cpu time spent up to now is      180.9 secs

     total energy              =    -430.45986237 Ry
     Harris-Foulkes estimate   =    -430.45986237 Ry
     estimated scf accuracy    <          1.1E-10 Ry

     iteration # 13     ecut=    25.00 Ry     beta= 0.70
     Davidson diagonalization with overlap
     ethr =  2.10E-13,  avg # of iterations =  2.8

     total cpu time spent up to now is      195.0 secs

     total energy              =    -430.45986237 Ry
     Harris-Foulkes estimate   =    -430.45986237 Ry
     estimated scf accuracy    <          2.6E-12 Ry

     iteration # 14     ecut=    25.00 Ry     beta= 0.70
     Davidson diagonalization with overlap
     ethr =  1.00E-13,  avg # of iterations =  1.0

     total cpu time spent up to now is      205.6 secs

     End of self-consistent calculation

     Number of k-points >= 100: set verbosity='high' to print the bands.

     highest occupied level (ev):     9.8039

!    total energy              =    -430.45986237 Ry
     Harris-Foulkes estimate   =    -430.45986237 Ry
     estimated scf accuracy    <          2.1E-13 Ry

     The total energy is the sum of the following terms:

     one-electron contribution =     -96.65575227 Ry
     hartree contribution      =      85.51548206 Ry
     xc contribution           =    -116.83825383 Ry
     ewald contribution        =    -302.48133834 Ry

     convergence has been achieved in  14 iterations

     Forces acting on atoms (cartesian axes, Ry/au):

     atom    1 type  1   force =     0.00043372    0.00043372    0.00000000
     atom    2 type  1   force =    -0.00003509   -0.00003509    0.00000000
     atom    3 type  2   force =     0.01419444   -0.01371172    0.00000000
     atom    4 type  2   force =    -0.01371172    0.01419444    0.00000000
     atom    5 type  2   force =     0.01352754    0.01352754    0.00000000
     atom    6 type  2   force =    -0.01440889   -0.01440889    0.00000000

     Total force =     0.039504     Total SCF correction =     0.000003


     Computing stress (Cartesian axis) and pressure

          total   stress  (Ry/bohr**3)                   (kbar)     P=-9550.06
  -0.06527308   0.00000027  -0.00000000      -9602.00      0.04     -0.00
   0.00000027  -0.06527308   0.00000000          0.04  -9602.00      0.00
   0.00000000   0.00000000  -0.06421384          0.00      0.00  -9446.18


     BFGS Geometry Optimization

     number of scf cycles    =   1
     number of bfgs steps    =   0

     enthalpy new            =    -430.4598623715 Ry

     new trust radius        =       0.5000000000 bohr
     new conv_thr            =            1.0E-12 Ry

     new unit-cell volume =    356.53469 a.u.^3 (    52.83299 Ang^3 )
     density =      9.47349 g/cm^3

CELL_PARAMETERS (alat=  9.11000000)
   0.888922769   0.000000000   0.000000000
   0.000000000   0.888922769   0.000000000
   0.000000000   0.000000000   0.596785958

ATOMIC_POSITIONS (crystal)
Sn       0.000003241   0.000003241   0.000000000
Sn       0.499999738   0.499999738   0.500000000
O        0.806106060   0.192897547   0.500000000
O        0.192897547   0.806106060   0.500000000
O        0.306101077   0.306101077   0.000000000
O        0.692892338   0.692892338   0.000000000



     Writing output data file SnO2.save
     Check: negative starting charge=   -0.009566
     NEW-OLD atomic charge density approx. for the potential

     Check: negative/imaginary core charge=   -0.001408    0.000000
     Check: negative starting charge=   -0.001844

     negative rho (up, down):  1.259E+00 0.000E+00
     extrapolated charge   30.12052, renormalised to   52.00000

     total cpu time spent up to now is      212.0 secs

     Self-consistent Calculation

     iteration #  1     ecut=    25.00 Ry     beta= 0.70
     Davidson diagonalization with overlap
     ethr =  1.00E-06,  avg # of iterations = 12.3

     total cpu time spent up to now is      258.7 secs

     total energy              =    -402.05800935 Ry
     Harris-Foulkes estimate   =    -475.65729284 Ry
     estimated scf accuracy    <      58.31726586 Ry

     iteration #  2     ecut=    25.00 Ry     beta= 0.70
     Davidson diagonalization with overlap
     ethr =  1.00E-02,  avg # of iterations =  5.4

     total cpu time spent up to now is      282.5 secs

     total energy              =    -436.54012949 Ry
     Harris-Foulkes estimate   =    -447.73368036 Ry
     estimated scf accuracy    <      17.32715921 Ry

     iteration #  3     ecut=    25.00 Ry     beta= 0.70
     Davidson diagonalization with overlap
     ethr =  1.00E-02,  avg # of iterations =  2.6

     total cpu time spent up to now is      298.6 secs

     total energy              =    -439.52977522 Ry
     Harris-Foulkes estimate   =    -439.90183994 Ry
     estimated scf accuracy    <       0.69835384 Ry

     iteration #  4     ecut=    25.00 Ry     beta= 0.70
     Davidson diagonalization with overlap
     ethr =  1.34E-03,  avg # of iterations =  2.0

     total cpu time spent up to now is      310.4 secs

     total energy              =    -439.47326284 Ry
     Harris-Foulkes estimate   =    -439.57695617 Ry
     estimated scf accuracy    <       0.16586003 Ry

     iteration #  5     ecut=    25.00 Ry     beta= 0.70
     Davidson diagonalization with overlap
     ethr =  3.19E-04,  avg # of iterations =  2.0

     negative rho (up, down):  8.978E-05 0.000E+00

     total cpu time spent up to now is      325.3 secs

     total energy              =    -439.47264459 Ry
     Harris-Foulkes estimate   =    -439.49105808 Ry
     estimated scf accuracy    <       0.02467148 Ry

     iteration #  6     ecut=    25.00 Ry     beta= 0.70
     Davidson diagonalization with overlap
     ethr =  4.74E-05,  avg # of iterations =  2.0

     negative rho (up, down):  3.796E-04 0.000E+00

     total cpu time spent up to now is      340.8 secs

     total energy              =    -439.47679557 Ry
     Harris-Foulkes estimate   =    -439.47761197 Ry
     estimated scf accuracy    <       0.00153995 Ry

     iteration #  7     ecut=    25.00 Ry     beta= 0.70
     Davidson diagonalization with overlap
     ethr =  2.96E-06,  avg # of iterations =  2.1

     negative rho (up, down):  5.332E-05 0.000E+00

     total cpu time spent up to now is      355.7 secs

     total energy              =    -439.47860074 Ry
     Harris-Foulkes estimate   =    -439.47865156 Ry
     estimated scf accuracy    <       0.00008546 Ry

     iteration #  8     ecut=    25.00 Ry     beta= 0.70
     Davidson diagonalization with overlap
     ethr =  1.64E-07,  avg # of iterations =  2.0

     total cpu time spent up to now is      369.9 secs

     total energy              =    -439.47860970 Ry
     Harris-Foulkes estimate   =    -439.47861384 Ry
     estimated scf accuracy    <       0.00000698 Ry

     iteration #  9     ecut=    25.00 Ry     beta= 0.70
     Davidson diagonalization with overlap
     ethr =  1.34E-08,  avg # of iterations =  2.6

     total cpu time spent up to now is      385.1 secs

     total energy              =    -439.47861071 Ry
     Harris-Foulkes estimate   =    -439.47861102 Ry
     estimated scf accuracy    <       0.00000055 Ry

     iteration # 10     ecut=    25.00 Ry     beta= 0.70
     Davidson diagonalization with overlap
     ethr =  1.06E-09,  avg # of iterations =  2.8

     total cpu time spent up to now is      399.4 secs

     total energy              =    -439.47861081 Ry
     Harris-Foulkes estimate   =    -439.47861083 Ry
     estimated scf accuracy    <       0.00000005 Ry

     iteration # 11     ecut=    25.00 Ry     beta= 0.70
     Davidson diagonalization with overlap
     ethr =  9.23E-11,  avg # of iterations =  2.4

     total cpu time spent up to now is      414.7 secs

     total energy              =    -439.47861082 Ry
     Harris-Foulkes estimate   =    -439.47861082 Ry
     estimated scf accuracy    <          8.9E-10 Ry

     iteration # 12     ecut=    25.00 Ry     beta= 0.70
     Davidson diagonalization with overlap
     ethr =  1.72E-12,  avg # of iterations =  2.9

     total cpu time spent up to now is      430.3 secs

     total energy              =    -439.47861082 Ry
     Harris-Foulkes estimate   =    -439.47861082 Ry
     estimated scf accuracy    <          3.9E-11 Ry

     iteration # 13     ecut=    25.00 Ry     beta= 0.70
     Davidson diagonalization with overlap
     ethr =  1.00E-13,  avg # of iterations =  2.0

     total cpu time spent up to now is      443.9 secs

     total energy              =    -439.47861082 Ry
     Harris-Foulkes estimate   =    -439.47861082 Ry
     estimated scf accuracy    <          3.1E-12 Ry

     iteration # 14     ecut=    25.00 Ry     beta= 0.70
     Davidson diagonalization with overlap
     ethr =  1.00E-13,  avg # of iterations =  1.0

     total cpu time spent up to now is      454.6 secs

     End of self-consistent calculation

     Number of k-points >= 100: set verbosity='high' to print the bands.

     highest occupied level (ev):    16.0279

!    total energy              =    -439.47861082 Ry
     Harris-Foulkes estimate   =    -439.47861082 Ry
     estimated scf accuracy    <          1.9E-13 Ry

     The total energy is the sum of the following terms:

     one-electron contribution =     -56.68411092 Ry
     hartree contribution      =      78.93501166 Ry
     xc contribution           =    -121.62135005 Ry
     ewald contribution        =    -340.10816151 Ry

     convergence has been achieved in  14 iterations

     Forces acting on atoms (cartesian axes, Ry/au):

     atom    1 type  1   force =    -0.00332246   -0.00332246    0.00000000
     atom    2 type  1   force =    -0.00269415   -0.00269415    0.00000000
     atom    3 type  2   force =    -0.05002091    0.04919161    0.00000000
     atom    4 type  2   force =     0.04919161   -0.05002091    0.00000000
     atom    5 type  2   force =    -0.04617953   -0.04617953    0.00000000
     atom    6 type  2   force =     0.05302544    0.05302544    0.00000000

     Total force =     0.140602     Total SCF correction =     0.000002


     Computing stress (Cartesian axis) and pressure

          total   stress  (Ry/bohr**3)                   (kbar)     P=-7229.33
  -0.05020967   0.00000034   0.00000000      -7386.10      0.05      0.00
   0.00000034  -0.05020967  -0.00000000          0.05  -7386.10     -0.00
   0.00000000   0.00000000  -0.04701258          0.00      0.00  -6915.79


     number of scf cycles    =   2
     number of bfgs steps    =   1

     enthalpy old            =    -430.4598623715 Ry
     enthalpy new            =    -439.4786108162 Ry

     CASE: enthalpy_new < enthalpy_old

     new trust radius        =       0.7078368365 bohr
     new conv_thr            =            1.0E-12 Ry

     new unit-cell volume =    217.71633 a.u.^3 (    32.26223 Ang^3 )
     density =     15.51390 g/cm^3

CELL_PARAMETERS (alat=  9.11000000)
   0.722306921   0.000000000   0.000000000
   0.000000000   0.722306921   0.000000000
   0.000000000   0.000000000   0.551940575

ATOMIC_POSITIONS (crystal)
Sn      -0.000690348  -0.000690348   0.000000000
Sn       0.499484115   0.499484115   0.500000000
O        0.794736364   0.204048809   0.500000000
O        0.204048809   0.794736364   0.500000000
O        0.295553318   0.295553318   0.000000000
O        0.704867742   0.704867742   0.000000000



     Writing output data file SnO2.save
     Check: negative starting charge=   -0.001844
     NEW-OLD atomic charge density approx. for the potential

     Check: negative/imaginary core charge=   -0.000515    0.000000

     negative rho (up, down):  2.444E+00 0.000E+00
     extrapolated charge   18.84620, renormalised to   52.00000

     total cpu time spent up to now is      460.9 secs

     Self-consistent Calculation

     iteration #  1     ecut=    25.00 Ry     beta= 0.70
     Davidson diagonalization with overlap
     ethr =  1.00E-06,  avg # of iterations = 10.9

     total cpu time spent up to now is      508.3 secs

     total energy              =    -392.74197767 Ry
     Harris-Foulkes estimate   =    -483.37736158 Ry
     estimated scf accuracy    <     130.33925410 Ry

     iteration #  2     ecut=    25.00 Ry     beta= 0.70
     Davidson diagonalization with overlap
     ethr =  1.00E-02,  avg # of iterations =  5.0

     total cpu time spent up to now is      532.5 secs

     total energy              =    -437.81556862 Ry
     Harris-Foulkes estimate   =    -448.32902944 Ry
     estimated scf accuracy    <      15.25168637 Ry

     iteration #  3     ecut=    25.00 Ry     beta= 0.70
     Davidson diagonalization with overlap
     ethr =  1.00E-02,  avg # of iterations =  2.9

     total cpu time spent up to now is      549.3 secs

     total energy              =    -441.20138437 Ry
     Harris-Foulkes estimate   =    -441.36651619 Ry
     estimated scf accuracy    <       0.31718879 Ry

     iteration #  4     ecut=    25.00 Ry     beta= 0.70
     Davidson diagonalization with overlap
     ethr =  6.10E-04,  avg # of iterations =  2.0

     total cpu time spent up to now is      562.5 secs

     total energy              =    -441.21454435 Ry
     Harris-Foulkes estimate   =    -441.23517871 Ry
     estimated scf accuracy    <       0.03613231 Ry

     iteration #  5     ecut=    25.00 Ry     beta= 0.70
     Davidson diagonalization with overlap
     ethr =  6.95E-05,  avg # of iterations =  2.0

     total cpu time spent up to now is      574.6 secs

     total energy              =    -441.21653798 Ry
     Harris-Foulkes estimate   =    -441.21736098 Ry
     estimated scf accuracy    <       0.00155416 Ry

     iteration #  6     ecut=    25.00 Ry     beta= 0.70
     Davidson diagonalization with overlap
     ethr =  2.99E-06,  avg # of iterations =  2.0

     total cpu time spent up to now is      588.4 secs

     total energy              =    -441.21674243 Ry
     Harris-Foulkes estimate   =    -441.21678030 Ry
     estimated scf accuracy    <       0.00006773 Ry

     iteration #  7     ecut=    25.00 Ry     beta= 0.70
     Davidson diagonalization with overlap
     ethr =  1.30E-07,  avg # of iterations =  3.0

     total cpu time spent up to now is      603.9 secs

     total energy              =    -441.21675877 Ry
     Harris-Foulkes estimate   =    -441.21676060 Ry
     estimated scf accuracy    <       0.00000428 Ry

     iteration #  8     ecut=    25.00 Ry     beta= 0.70
     Davidson diagonalization with overlap
     ethr =  8.23E-09,  avg # of iterations =  2.6

     total cpu time spent up to now is      618.1 secs

     total energy              =    -441.21675938 Ry
     Harris-Foulkes estimate   =    -441.21675953 Ry
     estimated scf accuracy    <       0.00000025 Ry

     iteration #  9     ecut=    25.00 Ry     beta= 0.70
     Davidson diagonalization with overlap
     ethr =  4.83E-10,  avg # of iterations =  2.0

     total cpu time spent up to now is      632.4 secs

     total energy              =    -441.21675943 Ry
     Harris-Foulkes estimate   =    -441.21675943 Ry
     estimated scf accuracy    <          9.9E-09 Ry

     iteration # 10     ecut=    25.00 Ry     beta= 0.70
     Davidson diagonalization with overlap
     ethr =  1.91E-11,  avg # of iterations =  2.3

     total cpu time spent up to now is      647.8 secs

     total energy              =    -441.21675943 Ry
     Harris-Foulkes estimate   =    -441.21675943 Ry
     estimated scf accuracy    <          5.9E-10 Ry

     iteration # 11     ecut=    25.00 Ry     beta= 0.70
     Davidson diagonalization with overlap
     ethr =  1.13E-12,  avg # of iterations =  2.1

     total cpu time spent up to now is      662.9 secs

     total energy              =    -441.21675943 Ry
     Harris-Foulkes estimate   =    -441.21675943 Ry
     estimated scf accuracy    <          4.0E-11 Ry

     iteration # 12     ecut=    25.00 Ry     beta= 0.70
     Davidson diagonalization with overlap
     ethr =  1.00E-13,  avg # of iterations =  2.0

     total cpu time spent up to now is      677.6 secs

     total energy              =    -441.21675943 Ry
     Harris-Foulkes estimate   =    -441.21675943 Ry
     estimated scf accuracy    <          3.7E-12 Ry

     iteration # 13     ecut=    25.00 Ry     beta= 0.70
     Davidson diagonalization with overlap
     ethr =  1.00E-13,  avg # of iterations =  1.0

     total cpu time spent up to now is      688.3 secs

     End of self-consistent calculation

     Number of k-points >= 100: set verbosity='high' to print the bands.

     highest occupied level (ev):    31.4460

!    total energy              =    -441.21675943 Ry
     Harris-Foulkes estimate   =    -441.21675943 Ry
     estimated scf accuracy    <          7.8E-14 Ry

     The total energy is the sum of the following terms:

     one-electron contribution =      29.77695059 Ry
     hartree contribution      =      61.37880039 Ry
     xc contribution           =    -127.50206633 Ry
     ewald contribution        =    -404.87044408 Ry

     convergence has been achieved in  13 iterations

     Forces acting on atoms (cartesian axes, Ry/au):

     atom    1 type  1   force =     0.05529881    0.05529881    0.00000000
     atom    2 type  1   force =     0.00842948    0.00842948    0.00000000
     atom    3 type  2   force =     0.65186885   -0.64777628    0.00000000
     atom    4 type  2   force =    -0.64777628    0.65186885    0.00000000
     atom    5 type  2   force =     0.61624361    0.61624361    0.00000000
     atom    6 type  2   force =    -0.68406447   -0.68406447    0.00000000

     Total force =     1.841400     Total SCF correction =     0.000001


     Computing stress (Cartesian axis) and pressure

          total   stress  (Ry/bohr**3)                   (kbar)     P= 6165.07
   0.05463811   0.00000381   0.00000000       8037.54      0.56      0.00
   0.00000381   0.05463811   0.00000000          0.56   8037.54      0.00
   0.00000000   0.00000000   0.01645164          0.00      0.00   2420.12


     number of scf cycles    =   3
     number of bfgs steps    =   2

     enthalpy old            =    -439.4786108162 Ry
     enthalpy new            =    -441.2167594309 Ry

     CASE: enthalpy_new < enthalpy_old

     new trust radius        =       0.6987600446 bohr
     new conv_thr            =            1.0E-12 Ry

     new unit-cell volume =    232.02389 a.u.^3 (    34.38239 Ang^3 )
     density =     14.55725 g/cm^3

CELL_PARAMETERS (alat=  9.11000000)
   0.853530270   0.000000000   0.000000000
   0.000000000   0.853530270   0.000000000
   0.000000000   0.000000000   0.421249812

ATOMIC_POSITIONS (crystal)
Sn       0.001750521   0.001750521   0.000000000
Sn       0.499827185   0.499827185   0.500000000
O        0.823494139   0.175470345   0.500000000
O        0.175470345   0.823494139   0.500000000
O        0.322754911   0.322754911   0.000000000
O        0.674702900   0.674702900   0.000000000



     Writing output data file SnO2.save
     NEW-OLD atomic charge density approx. for the potential

     Check: negative/imaginary core charge=   -0.000777    0.000000
     extrapolated charge   55.20635, renormalised to   52.00000

     total cpu time spent up to now is      694.6 secs

     Self-consistent Calculation

     iteration #  1     ecut=    25.00 Ry     beta= 0.70
     Davidson diagonalization with overlap
     ethr =  1.00E-06,  avg # of iterations =  8.4

     total cpu time spent up to now is      734.7 secs

     total energy              =    -437.42909328 Ry
     Harris-Foulkes estimate   =    -432.94888874 Ry
     estimated scf accuracy    <       0.46395098 Ry

     iteration #  2     ecut=    25.00 Ry     beta= 0.70
     Davidson diagonalization with overlap
     ethr =  8.92E-04,  avg # of iterations =  2.8

     total cpu time spent up to now is      751.2 secs

     total energy              =    -437.68264762 Ry
     Harris-Foulkes estimate   =    -437.81205676 Ry
     estimated scf accuracy    <       0.23688323 Ry

     iteration #  3     ecut=    25.00 Ry     beta= 0.70
     Davidson diagonalization with overlap
     ethr =  4.56E-04,  avg # of iterations =  2.0

     total cpu time spent up to now is      764.9 secs

     total energy              =    -437.70451700 Ry
     Harris-Foulkes estimate   =    -437.71092033 Ry
     estimated scf accuracy    <       0.01359558 Ry

     iteration #  4     ecut=    25.00 Ry     beta= 0.70
     Davidson diagonalization with overlap
     ethr =  2.61E-05,  avg # of iterations =  2.1

     total cpu time spent up to now is      779.8 secs

     total energy              =    -437.70684978 Ry
     Harris-Foulkes estimate   =    -437.70685333 Ry
     estimated scf accuracy    <       0.00022274 Ry

     iteration #  5     ecut=    25.00 Ry     beta= 0.70
     Davidson diagonalization with overlap
     ethr =  4.28E-07,  avg # of iterations =  2.3

     total cpu time spent up to now is      794.2 secs

     total energy              =    -437.70688079 Ry
     Harris-Foulkes estimate   =    -437.70690463 Ry
     estimated scf accuracy    <       0.00004101 Ry

     iteration #  6     ecut=    25.00 Ry     beta= 0.70
     Davidson diagonalization with overlap
     ethr =  7.89E-08,  avg # of iterations =  2.0

     total cpu time spent up to now is      808.5 secs

     total energy              =    -437.70688802 Ry
     Harris-Foulkes estimate   =    -437.70688861 Ry
     estimated scf accuracy    <       0.00000102 Ry

     iteration #  7     ecut=    25.00 Ry     beta= 0.70
     Davidson diagonalization with overlap
     ethr =  1.95E-09,  avg # of iterations =  2.2

     total cpu time spent up to now is      823.8 secs

     total energy              =    -437.70688831 Ry
     Harris-Foulkes estimate   =    -437.70688833 Ry
     estimated scf accuracy    <       0.00000005 Ry

     iteration #  8     ecut=    25.00 Ry     beta= 0.70
     Davidson diagonalization with overlap
     ethr =  9.35E-11,  avg # of iterations =  2.2

     total cpu time spent up to now is      839.2 secs

     total energy              =    -437.70688832 Ry
     Harris-Foulkes estimate   =    -437.70688832 Ry
     estimated scf accuracy    <       0.00000001 Ry

     iteration #  9     ecut=    25.00 Ry     beta= 0.70
     Davidson diagonalization with overlap
     ethr =  1.98E-11,  avg # of iterations =  2.1

     total cpu time spent up to now is      853.4 secs

     total energy              =    -437.70688832 Ry
     Harris-Foulkes estimate   =    -437.70688832 Ry
     estimated scf accuracy    <          9.9E-10 Ry

     iteration # 10     ecut=    25.00 Ry     beta= 0.70
     Davidson diagonalization with overlap
     ethr =  1.91E-12,  avg # of iterations =  2.0

     total cpu time spent up to now is      868.2 secs

     total energy              =    -437.70688832 Ry
     Harris-Foulkes estimate   =    -437.70688832 Ry
     estimated scf accuracy    <          4.5E-11 Ry

     iteration # 11     ecut=    25.00 Ry     beta= 0.70
     Davidson diagonalization with overlap
     ethr =  1.00E-13,  avg # of iterations =  2.0

     total cpu time spent up to now is      883.3 secs

     End of self-consistent calculation

     Number of k-points >= 100: set verbosity='high' to print the bands.

     highest occupied level (ev):    30.1921

!    total energy              =    -437.70688832 Ry
     Harris-Foulkes estimate   =    -437.70688832 Ry
     estimated scf accuracy    <          9.4E-13 Ry

     The total energy is the sum of the following terms:

     one-electron contribution =     -35.24849755 Ry
     hartree contribution      =      88.66612169 Ry
     xc contribution           =    -127.69293169 Ry
     ewald contribution        =    -363.43158077 Ry

     convergence has been achieved in  11 iterations

     Forces acting on atoms (cartesian axes, Ry/au):

     atom    1 type  1   force =     0.02819330    0.02819330    0.00000000
     atom    2 type  1   force =    -0.06564482   -0.06564482    0.00000000
     atom    3 type  2   force =    -1.82003317    1.76777740    0.00000000
     atom    4 type  2   force =     1.76777740   -1.82003317    0.00000000
     atom    5 type  2   force =    -1.75013452   -1.75013452    0.00000000
     atom    6 type  2   force =     1.83984181    1.83984181    0.00000000

     Total force =     5.077529     Total SCF correction =     0.000003


     Computing stress (Cartesian axis) and pressure

          total   stress  (Ry/bohr**3)                   (kbar)     P= 5869.45
  -0.00010096   0.00002587   0.00000000        -14.85      3.81      0.00
   0.00002587  -0.00010096   0.00000000          3.81    -14.85      0.00
   0.00000000  -0.00000000   0.11990111          0.00     -0.00  17638.06


     number of scf cycles    =   4
     number of bfgs steps    =   3

     enthalpy old            =    -441.2167594309 Ry
     enthalpy new            =    -437.7068883193 Ry

     CASE: enthalpy_new > enthalpy_old

     new trust radius        =       0.2644158386 bohr
     new conv_thr            =            1.0E-12 Ry

     new unit-cell volume =    224.48409 a.u.^3 (    33.26511 Ang^3 )
     density =     15.04619 g/cm^3

CELL_PARAMETERS (alat=  9.11000000)
   0.759017993   0.000000000   0.000000000
   0.000000000   0.759017993   0.000000000
   0.000000000   0.000000000   0.515378499

ATOMIC_POSITIONS (crystal)
Sn      -0.000007490  -0.000007490   0.000000000
Sn       0.499580093   0.499580093   0.500000000
O        0.802781645   0.196053692   0.500000000
O        0.196053692   0.802781645   0.500000000
O        0.303163241   0.303163241   0.000000000
O        0.696428820   0.696428820   0.000000000



     Writing output data file SnO2.save
     NEW-OLD atomic charge density approx. for the potential

     Check: negative/imaginary core charge=   -0.000501    0.000000
     extrapolated charge   50.25357, renormalised to   52.00000

     total cpu time spent up to now is      889.6 secs

     Self-consistent Calculation

     iteration #  1     ecut=    25.00 Ry     beta= 0.70
     Davidson diagonalization with overlap
     ethr =  1.00E-06,  avg # of iterations =  7.0

     total cpu time spent up to now is      926.7 secs

     total energy              =    -441.69439744 Ry
     Harris-Foulkes estimate   =    -443.06229713 Ry
     estimated scf accuracy    <       0.24080821 Ry

     iteration #  2     ecut=    25.00 Ry     beta= 0.70
     Davidson diagonalization with overlap
     ethr =  4.63E-04,  avg # of iterations =  2.1

     total cpu time spent up to now is      942.4 secs

     total energy              =    -441.81474409 Ry
     Harris-Foulkes estimate   =    -441.84074170 Ry
     estimated scf accuracy    <       0.05008111 Ry

     iteration #  3     ecut=    25.00 Ry     beta= 0.70
     Davidson diagonalization with overlap
     ethr =  9.63E-05,  avg # of iterations =  2.0

     total cpu time spent up to now is      956.6 secs

     total energy              =    -441.82013159 Ry
     Harris-Foulkes estimate   =    -441.82076997 Ry
     estimated scf accuracy    <       0.00230086 Ry

     iteration #  4     ecut=    25.00 Ry     beta= 0.70
     Davidson diagonalization with overlap
     ethr =  4.42E-06,  avg # of iterations =  2.0

     total cpu time spent up to now is      971.7 secs

     total energy              =    -441.82055097 Ry
     Harris-Foulkes estimate   =    -441.82055802 Ry
     estimated scf accuracy    <       0.00006372 Ry

     iteration #  5     ecut=    25.00 Ry     beta= 0.70
     Davidson diagonalization with overlap
     ethr =  1.23E-07,  avg # of iterations =  2.6

     total cpu time spent up to now is      987.3 secs

     total energy              =    -441.82056023 Ry
     Harris-Foulkes estimate   =    -441.82057216 Ry
     estimated scf accuracy    <       0.00002317 Ry

     iteration #  6     ecut=    25.00 Ry     beta= 0.70
     Davidson diagonalization with overlap
     ethr =  4.46E-08,  avg # of iterations =  2.0

     total cpu time spent up to now is     1001.6 secs

     total energy              =    -441.82056507 Ry
     Harris-Foulkes estimate   =    -441.82056526 Ry
     estimated scf accuracy    <       0.00000051 Ry

     iteration #  7     ecut=    25.00 Ry     beta= 0.70
     Davidson diagonalization with overlap
     ethr =  9.79E-10,  avg # of iterations =  2.0

     total cpu time spent up to now is     1016.9 secs

     total energy              =    -441.82056520 Ry
     Harris-Foulkes estimate   =    -441.82056521 Ry
     estimated scf accuracy    <       0.00000003 Ry

     iteration #  8     ecut=    25.00 Ry     beta= 0.70
     Davidson diagonalization with overlap
     ethr =  5.09E-11,  avg # of iterations =  2.0

     total cpu time spent up to now is     1032.3 secs

     total energy              =    -441.82056520 Ry
     Harris-Foulkes estimate   =    -441.82056521 Ry
     estimated scf accuracy    <          2.5E-09 Ry

     iteration #  9     ecut=    25.00 Ry     beta= 0.70
     Davidson diagonalization with overlap
     ethr =  4.88E-12,  avg # of iterations =  2.4

     total cpu time spent up to now is     1046.3 secs

     total energy              =    -441.82056520 Ry
     Harris-Foulkes estimate   =    -441.82056521 Ry
     estimated scf accuracy    <          3.2E-10 Ry

     iteration # 10     ecut=    25.00 Ry     beta= 0.70
     Davidson diagonalization with overlap
     ethr =  6.18E-13,  avg # of iterations =  2.0

     total cpu time spent up to now is     1060.7 secs

     total energy              =    -441.82056520 Ry
     Harris-Foulkes estimate   =    -441.82056520 Ry
     estimated scf accuracy    <          9.4E-12 Ry

     iteration # 11     ecut=    25.00 Ry     beta= 0.70
     Davidson diagonalization with overlap
     ethr =  1.00E-13,  avg # of iterations =  1.5

     total cpu time spent up to now is     1071.8 secs

     End of self-consistent calculation

     Number of k-points >= 100: set verbosity='high' to print the bands.

     highest occupied level (ev):    29.6822

!    total energy              =    -441.82056520 Ry
     Harris-Foulkes estimate   =    -441.82056520 Ry
     estimated scf accuracy    <          2.9E-13 Ry

     The total energy is the sum of the following terms:

     one-electron contribution =      17.69058530 Ry
     hartree contribution      =      65.47851062 Ry
     xc contribution           =    -127.32371774 Ry
     ewald contribution        =    -397.66594339 Ry

     convergence has been achieved in  11 iterations

     Forces acting on atoms (cartesian axes, Ry/au):

     atom    1 type  1   force =    -0.00404971   -0.00404971    0.00000000
     atom    2 type  1   force =     0.00612569    0.00612569    0.00000000
     atom    3 type  2   force =    -0.08809905    0.08524849    0.00000000
     atom    4 type  2   force =     0.08524849   -0.08809905    0.00000000
     atom    5 type  2   force =    -0.08641097   -0.08641097    0.00000000
     atom    6 type  2   force =     0.08718555    0.08718555    0.00000000

     Total force =     0.245564     Total SCF correction =     0.000002


     Computing stress (Cartesian axis) and pressure

          total   stress  (Ry/bohr**3)                   (kbar)     P= 5224.16
   0.03204792  -0.00000038   0.00000000       4714.41     -0.06      0.00
  -0.00000038   0.03204792   0.00000000         -0.06   4714.41      0.00
   0.00000000   0.00000000   0.04244352          0.00      0.00   6243.66


     number of scf cycles    =   5
     number of bfgs steps    =   3

     enthalpy old            =    -441.2167594309 Ry
     enthalpy new            =    -441.8205652050 Ry

     CASE: enthalpy_new < enthalpy_old

     new trust radius        =       0.4928166755 bohr
     new conv_thr            =            1.0E-12 Ry

     new unit-cell volume =    308.58715 a.u.^3 (    45.72790 Ang^3 )
     density =     10.94546 g/cm^3

CELL_PARAMETERS (alat=  9.11000000)
   0.824680553   0.000000000   0.000000000
   0.000000000   0.824680553   0.000000000
   0.000000000   0.000000000   0.600138103

ATOMIC_POSITIONS (crystal)
Sn       0.000315122   0.000315122   0.000000000
Sn       0.500330597   0.500330597   0.500000000
O        0.804772769   0.193954726   0.500000000
O        0.193954726   0.804772769   0.500000000
O        0.304718673   0.304718673   0.000000000
O        0.693908114   0.693908114   0.000000000



     Writing output data file SnO2.save
     NEW-OLD atomic charge density approx. for the potential

     Check: negative/imaginary core charge=   -0.001120    0.000000
     Check: negative starting charge=   -0.000712

     negative rho (up, down):  9.615E-04 0.000E+00
     extrapolated charge   66.17136, renormalised to   52.00000

     total cpu time spent up to now is     1078.3 secs

     Self-consistent Calculation

     iteration #  1     ecut=    25.00 Ry     beta= 0.70
     Davidson diagonalization with overlap
     c_bands:  1 eigenvalues not converged
     c_bands:  1 eigenvalues not converged
     ethr =  1.00E-06,  avg # of iterations = 12.9

     negative rho (up, down):  2.048E-04 0.000E+00

     total cpu time spent up to now is     1120.1 secs

     total energy              =    -429.69610974 Ry
     Harris-Foulkes estimate   =    -426.42349584 Ry
     estimated scf accuracy    <       6.60773921 Ry

     iteration #  2     ecut=    25.00 Ry     beta= 0.70
     Davidson diagonalization with overlap
     ethr =  1.00E-02,  avg # of iterations =  4.5

     negative rho (up, down):  9.655E-05 0.000E+00

     total cpu time spent up to now is     1142.9 secs

     total energy              =    -441.90152968 Ry
     Harris-Foulkes estimate   =    -445.58567293 Ry
     estimated scf accuracy    <       8.44630739 Ry

     iteration #  3     ecut=    25.00 Ry     beta= 0.70
     Davidson diagonalization with overlap
     ethr =  1.00E-02,  avg # of iterations =  2.0

     negative rho (up, down):  3.909E-05 0.000E+00

     total cpu time spent up to now is     1155.1 secs

     total energy              =    -441.67067090 Ry
     Harris-Foulkes estimate   =    -442.32131924 Ry
     estimated scf accuracy    <       1.95975485 Ry

     iteration #  4     ecut=    25.00 Ry     beta= 0.70
     Davidson diagonalization with overlap
     ethr =  3.77E-03,  avg # of iterations =  1.0

     total cpu time spent up to now is     1165.6 secs

     total energy              =    -441.39299000 Ry
     Harris-Foulkes estimate   =    -441.72715044 Ry
     estimated scf accuracy    <       0.79707387 Ry

     iteration #  5     ecut=    25.00 Ry     beta= 0.70
     Davidson diagonalization with overlap
     ethr =  1.53E-03,  avg # of iterations =  1.6

     total cpu time spent up to now is     1176.5 secs

     total energy              =    -441.32284650 Ry
     Harris-Foulkes estimate   =    -441.43526267 Ry
     estimated scf accuracy    <       0.17885001 Ry

     iteration #  6     ecut=    25.00 Ry     beta= 0.70
     Davidson diagonalization with overlap
     ethr =  3.44E-04,  avg # of iterations =  2.0

     total cpu time spent up to now is     1191.8 secs

     total energy              =    -441.35988940 Ry
     Harris-Foulkes estimate   =    -441.36032881 Ry
     estimated scf accuracy    <       0.00075595 Ry

     iteration #  7     ecut=    25.00 Ry     beta= 0.70
     Davidson diagonalization with overlap
     ethr =  1.45E-06,  avg # of iterations =  2.7

     total cpu time spent up to now is     1207.7 secs

     total energy              =    -441.36023228 Ry
     Harris-Foulkes estimate   =    -441.36030168 Ry
     estimated scf accuracy    <       0.00025692 Ry

     iteration #  8     ecut=    25.00 Ry     beta= 0.70
     Davidson diagonalization with overlap
     ethr =  4.94E-07,  avg # of iterations =  1.0

     total cpu time spent up to now is     1218.4 secs

     total energy              =    -441.36018654 Ry
     Harris-Foulkes estimate   =    -441.36024380 Ry
     estimated scf accuracy    <       0.00011012 Ry

     iteration #  9     ecut=    25.00 Ry     beta= 0.70
     Davidson diagonalization with overlap
     ethr =  2.12E-07,  avg # of iterations =  2.0

     total cpu time spent up to now is     1231.5 secs

     total energy              =    -441.36019556 Ry
     Harris-Foulkes estimate   =    -441.36019832 Ry
     estimated scf accuracy    <       0.00000598 Ry

     iteration # 10     ecut=    25.00 Ry     beta= 0.70
     Davidson diagonalization with overlap
     ethr =  1.15E-08,  avg # of iterations =  2.0

     total cpu time spent up to now is     1245.6 secs

     total energy              =    -441.36019644 Ry
     Harris-Foulkes estimate   =    -441.36019668 Ry
     estimated scf accuracy    <       0.00000043 Ry

     iteration # 11     ecut=    25.00 Ry     beta= 0.70
     Davidson diagonalization with overlap
     ethr =  8.18E-10,  avg # of iterations =  2.0

     total cpu time spent up to now is     1261.0 secs

     total energy              =    -441.36019650 Ry
     Harris-Foulkes estimate   =    -441.36019652 Ry
     estimated scf accuracy    <       0.00000004 Ry

     iteration # 12     ecut=    25.00 Ry     beta= 0.70
     Davidson diagonalization with overlap
     ethr =  8.27E-11,  avg # of iterations =  2.0

     total cpu time spent up to now is     1274.5 secs

     total energy              =    -441.36019651 Ry
     Harris-Foulkes estimate   =    -441.36019651 Ry
     estimated scf accuracy    <          3.5E-09 Ry

     iteration # 13     ecut=    25.00 Ry     beta= 0.70
     Davidson diagonalization with overlap
     ethr =  6.77E-12,  avg # of iterations =  2.0

     total cpu time spent up to now is     1288.0 secs

     total energy              =    -441.36019651 Ry
     Harris-Foulkes estimate   =    -441.36019651 Ry
     estimated scf accuracy    <          3.6E-10 Ry

     iteration # 14     ecut=    25.00 Ry     beta= 0.70
     Davidson diagonalization with overlap
     ethr =  6.88E-13,  avg # of iterations =  2.0

     total cpu time spent up to now is     1302.3 secs

     total energy              =    -441.36019651 Ry
     Harris-Foulkes estimate   =    -441.36019651 Ry
     estimated scf accuracy    <          3.4E-11 Ry

     iteration # 15     ecut=    25.00 Ry     beta= 0.70
     Davidson diagonalization with overlap
     ethr =  1.00E-13,  avg # of iterations =  2.0

     total cpu time spent up to now is     1315.3 secs

     total energy              =    -441.36019651 Ry
     Harris-Foulkes estimate   =    -441.36019651 Ry
     estimated scf accuracy    <          1.1E-12 Ry

     iteration # 16     ecut=    25.00 Ry     beta= 0.70
     Davidson diagonalization with overlap
     ethr =  1.00E-13,  avg # of iterations =  1.0

     total cpu time spent up to now is     1325.9 secs

     End of self-consistent calculation

     Number of k-points >= 100: set verbosity='high' to print the bands.

     highest occupied level (ev):    19.7338

!    total energy              =    -441.36019651 Ry
     Harris-Foulkes estimate   =    -441.36019651 Ry
     estimated scf accuracy    <          8.5E-14 Ry

     The total energy is the sum of the following terms:

     one-electron contribution =     -31.35487873 Ry
     hartree contribution      =      72.97539984 Ry
     xc contribution           =    -123.32735817 Ry
     ewald contribution        =    -359.65335945 Ry

     convergence has been achieved in  16 iterations

     Forces acting on atoms (cartesian axes, Ry/au):

     atom    1 type  1   force =    -0.01654108   -0.01654108    0.00000000
     atom    2 type  1   force =    -0.00366889   -0.00366889    0.00000000
     atom    3 type  2   force =     0.04822893   -0.05271108    0.00000000
     atom    4 type  2   force =    -0.05271108    0.04822893    0.00000000
     atom    5 type  2   force =     0.06303478    0.06303478    0.00000000
     atom    6 type  2   force =    -0.03834265   -0.03834265    0.00000000

     Total force =     0.147208     Total SCF correction =     0.000000


     Computing stress (Cartesian axis) and pressure

          total   stress  (Ry/bohr**3)                   (kbar)     P=-4889.03
  -0.02706260   0.00000279   0.00000000      -3981.05      0.41      0.00
   0.00000279  -0.02706260   0.00000000          0.41  -3981.05      0.00
   0.00000000   0.00000000  -0.04557960          0.00      0.00  -6704.99


     number of scf cycles    =   6
     number of bfgs steps    =   4

     enthalpy old            =    -441.8205652050 Ry
     enthalpy new            =    -441.3601965065 Ry

     CASE: enthalpy_new > enthalpy_old

     new trust radius        =       0.2130889109 bohr
     new conv_thr            =            1.0E-12 Ry

     new unit-cell volume =    258.52792 a.u.^3 (    38.30988 Ang^3 )
     density =     13.06485 g/cm^3

CELL_PARAMETERS (alat=  9.11000000)
   0.787216235   0.000000000   0.000000000
   0.000000000   0.787216235   0.000000000
   0.000000000   0.000000000   0.551777809

ATOMIC_POSITIONS (crystal)
Sn       0.000131053   0.000131053   0.000000000
Sn       0.499902391   0.499902391   0.500000000
O        0.803636717   0.195152308   0.500000000
O        0.195152308   0.803636717   0.500000000
O        0.303831208   0.303831208   0.000000000
O        0.695346323   0.695346323   0.000000000



     Writing output data file SnO2.save
     Check: negative starting charge=   -0.000712
     NEW-OLD atomic charge density approx. for the potential

     Check: negative/imaginary core charge=   -0.000750    0.000000
     extrapolated charge   41.93174, renormalised to   52.00000

     total cpu time spent up to now is     1332.5 secs

     Self-consistent Calculation

     iteration #  1     ecut=    25.00 Ry     beta= 0.70
     Davidson diagonalization with overlap
     ethr =  1.00E-06,  avg # of iterations =  6.0

     total cpu time spent up to now is     1363.3 secs

     total energy              =    -439.60993972 Ry
     Harris-Foulkes estimate   =    -450.80357812 Ry
     estimated scf accuracy    <       2.61953737 Ry

     iteration #  2     ecut=    25.00 Ry     beta= 0.70
     Davidson diagonalization with overlap
     ethr =  5.04E-03,  avg # of iterations =  3.0

     total cpu time spent up to now is     1380.4 secs

     total energy              =    -442.29432300 Ry
     Harris-Foulkes estimate   =    -443.04001329 Ry
     estimated scf accuracy    <       1.62071639 Ry

     iteration #  3     ecut=    25.00 Ry     beta= 0.70
     Davidson diagonalization with overlap
     ethr =  3.12E-03,  avg # of iterations =  2.0

     total cpu time spent up to now is     1393.3 secs

     total energy              =    -442.36480458 Ry
     Harris-Foulkes estimate   =    -442.44178071 Ry
     estimated scf accuracy    <       0.15819546 Ry

     iteration #  4     ecut=    25.00 Ry     beta= 0.70
     Davidson diagonalization with overlap
     ethr =  3.04E-04,  avg # of iterations =  2.0

     total cpu time spent up to now is     1406.2 secs

     total energy              =    -442.37347415 Ry
     Harris-Foulkes estimate   =    -442.38269309 Ry
     estimated scf accuracy    <       0.01450125 Ry

     iteration #  5     ecut=    25.00 Ry     beta= 0.70
     Davidson diagonalization with overlap
     ethr =  2.79E-05,  avg # of iterations =  2.3

     total cpu time spent up to now is     1421.7 secs

     total energy              =    -442.37783566 Ry
     Harris-Foulkes estimate   =    -442.37869253 Ry
     estimated scf accuracy    <       0.00164698 Ry

     iteration #  6     ecut=    25.00 Ry     beta= 0.70
     Davidson diagonalization with overlap
     ethr =  3.17E-06,  avg # of iterations =  2.0

     total cpu time spent up to now is     1435.2 secs

     total energy              =    -442.37802753 Ry
     Harris-Foulkes estimate   =    -442.37805775 Ry
     estimated scf accuracy    <       0.00006078 Ry

     iteration #  7     ecut=    25.00 Ry     beta= 0.70
     Davidson diagonalization with overlap
     ethr =  1.17E-07,  avg # of iterations =  2.0

     total cpu time spent up to now is     1449.7 secs

     total energy              =    -442.37803514 Ry
     Harris-Foulkes estimate   =    -442.37803663 Ry
     estimated scf accuracy    <       0.00000355 Ry

     iteration #  8     ecut=    25.00 Ry     beta= 0.70
     Davidson diagonalization with overlap
     ethr =  6.82E-09,  avg # of iterations =  2.0

     total cpu time spent up to now is     1463.1 secs

     total energy              =    -442.37803524 Ry
     Harris-Foulkes estimate   =    -442.37803550 Ry
     estimated scf accuracy    <       0.00000046 Ry

     iteration #  9     ecut=    25.00 Ry     beta= 0.70
     Davidson diagonalization with overlap
     ethr =  8.85E-10,  avg # of iterations =  2.0

     total cpu time spent up to now is     1478.2 secs

     total energy              =    -442.37803533 Ry
     Harris-Foulkes estimate   =    -442.37803533 Ry
     estimated scf accuracy    <          2.0E-09 Ry

     iteration # 10     ecut=    25.00 Ry     beta= 0.70
     Davidson diagonalization with overlap
     ethr =  3.77E-12,  avg # of iterations =  3.0

     total cpu time spent up to now is     1495.0 secs

     total energy              =    -442.37803533 Ry
     Harris-Foulkes estimate   =    -442.37803533 Ry
     estimated scf accuracy    <          2.4E-10 Ry

     iteration # 11     ecut=    25.00 Ry     beta= 0.70
     Davidson diagonalization with overlap
     ethr =  4.60E-13,  avg # of iterations =  2.0

     total cpu time spent up to now is     1509.9 secs

     total energy              =    -442.37803533 Ry
     Harris-Foulkes estimate   =    -442.37803533 Ry
     estimated scf accuracy    <          3.1E-12 Ry

     iteration # 12     ecut=    25.00 Ry     beta= 0.70
     Davidson diagonalization with overlap
     ethr =  1.00E-13,  avg # of iterations =  1.0

     total cpu time spent up to now is     1520.5 secs

     End of self-consistent calculation

     Number of k-points >= 100: set verbosity='high' to print the bands.

     highest occupied level (ev):    24.7823

!    total energy              =    -442.37803533 Ry
     Harris-Foulkes estimate   =    -442.37803533 Ry
     estimated scf accuracy    <          3.7E-13 Ry

     The total energy is the sum of the following terms:

     one-electron contribution =      -5.40297880 Ry
     hartree contribution      =      68.98406072 Ry
     xc contribution           =    -125.57409554 Ry
     ewald contribution        =    -380.38502172 Ry

     convergence has been achieved in  12 iterations

     Forces acting on atoms (cartesian axes, Ry/au):

     atom    1 type  1   force =    -0.01221144   -0.01221144    0.00000000
     atom    2 type  1   force =    -0.00127596   -0.00127596    0.00000000
     atom    3 type  2   force =     0.00145228   -0.00557269    0.00000000
     atom    4 type  2   force =    -0.00557269    0.00145228    0.00000000
     atom    5 type  2   force =     0.01236448    0.01236448    0.00000000
     atom    6 type  2   force =     0.00524333    0.00524333    0.00000000

     Total force =     0.026992     Total SCF correction =     0.000001


     Computing stress (Cartesian axis) and pressure

          total   stress  (Ry/bohr**3)                   (kbar)     P= -139.55
   0.00037468   0.00000110   0.00000000         55.12      0.16      0.00
   0.00000110   0.00037468   0.00000000          0.16     55.12      0.00
   0.00000000   0.00000000  -0.00359523          0.00      0.00   -528.88


     number of scf cycles    =   7
     number of bfgs steps    =   4

     enthalpy old            =    -441.8205652050 Ry
     enthalpy new            =    -442.3780353311 Ry

     CASE: enthalpy_new < enthalpy_old

     new trust radius        =       0.0496225840 bohr
     new conv_thr            =            1.0E-12 Ry

     new unit-cell volume =    258.13876 a.u.^3 (    38.25222 Ang^3 )
     density =     13.08455 g/cm^3

CELL_PARAMETERS (alat=  9.11000000)
   0.792763892   0.000000000   0.000000000
   0.000000000   0.792763892   0.000000000
   0.000000000   0.000000000   0.543263294

ATOMIC_POSITIONS (crystal)
Sn      -0.001118350  -0.001118350   0.000000000
Sn       0.499805714   0.499805714   0.500000000
O        0.800638995   0.197773282   0.500000000
O        0.197773282   0.800638995   0.500000000
O        0.301885128   0.301885128   0.000000000
O        0.699015231   0.699015231   0.000000000



     Writing output data file SnO2.save
     NEW-OLD atomic charge density approx. for the potential

     Check: negative/imaginary core charge=   -0.000740    0.000000
     extrapolated charge   51.92161, renormalised to   52.00000

     total cpu time spent up to now is     1526.8 secs

     Self-consistent Calculation

     iteration #  1     ecut=    25.00 Ry     beta= 0.70
     Davidson diagonalization with overlap
     ethr =  1.00E-06,  avg # of iterations =  5.0

     total cpu time spent up to now is     1552.4 secs

     total energy              =    -442.38279502 Ry
     Harris-Foulkes estimate   =    -442.45201477 Ry
     estimated scf accuracy    <       0.00156067 Ry

     iteration #  2     ecut=    25.00 Ry     beta= 0.70
     Davidson diagonalization with overlap
     ethr =  3.00E-06,  avg # of iterations =  2.0

     total cpu time spent up to now is     1567.9 secs

     total energy              =    -442.38318314 Ry
     Harris-Foulkes estimate   =    -442.38325583 Ry
     estimated scf accuracy    <       0.00018259 Ry

     iteration #  3     ecut=    25.00 Ry     beta= 0.70
     Davidson diagonalization with overlap
     ethr =  3.51E-07,  avg # of iterations =  2.0

     total cpu time spent up to now is     1582.1 secs

     total energy              =    -442.38321485 Ry
     Harris-Foulkes estimate   =    -442.38321425 Ry
     estimated scf accuracy    <       0.00000973 Ry

     iteration #  4     ecut=    25.00 Ry     beta= 0.70
     Davidson diagonalization with overlap
     ethr =  1.87E-08,  avg # of iterations =  2.0

     total cpu time spent up to now is     1596.9 secs

     total energy              =    -442.38321651 Ry
     Harris-Foulkes estimate   =    -442.38321722 Ry
     estimated scf accuracy    <       0.00000158 Ry

     iteration #  5     ecut=    25.00 Ry     beta= 0.70
     Davidson diagonalization with overlap
     ethr =  3.03E-09,  avg # of iterations =  2.3

     total cpu time spent up to now is     1612.0 secs

     total energy              =    -442.38321691 Ry
     Harris-Foulkes estimate   =    -442.38321701 Ry
     estimated scf accuracy    <       0.00000022 Ry

     iteration #  6     ecut=    25.00 Ry     beta= 0.70
     Davidson diagonalization with overlap
     ethr =  4.24E-10,  avg # of iterations =  2.1

     total cpu time spent up to now is     1626.6 secs

     total energy              =    -442.38321696 Ry
     Harris-Foulkes estimate   =    -442.38321697 Ry
     estimated scf accuracy    <       0.00000001 Ry

     iteration #  7     ecut=    25.00 Ry     beta= 0.70
     Davidson diagonalization with overlap
     ethr =  2.46E-11,  avg # of iterations =  2.0

     total cpu time spent up to now is     1640.5 secs

     total energy              =    -442.38321697 Ry
     Harris-Foulkes estimate   =    -442.38321697 Ry
     estimated scf accuracy    <          1.2E-10 Ry

     iteration #  8     ecut=    25.00 Ry     beta= 0.70
     Davidson diagonalization with overlap
     ethr =  2.35E-13,  avg # of iterations =  2.5

     total cpu time spent up to now is     1656.5 secs

     total energy              =    -442.38321697 Ry
     Harris-Foulkes estimate   =    -442.38321697 Ry
     estimated scf accuracy    <          9.7E-12 Ry

     iteration #  9     ecut=    25.00 Ry     beta= 0.70
     Davidson diagonalization with overlap
     ethr =  1.00E-13,  avg # of iterations =  1.9

     total cpu time spent up to now is     1667.9 secs

     End of self-consistent calculation

     Number of k-points >= 100: set verbosity='high' to print the bands.

     highest occupied level (ev):    24.7246

!    total energy              =    -442.38321697 Ry
     Harris-Foulkes estimate   =    -442.38321697 Ry
     estimated scf accuracy    <          9.8E-13 Ry

     The total energy is the sum of the following terms:

     one-electron contribution =      -6.06792259 Ry
     hartree contribution      =      69.34842086 Ry
     xc contribution           =    -125.62034060 Ry
     ewald contribution        =    -380.04337464 Ry

     convergence has been achieved in   9 iterations

     Forces acting on atoms (cartesian axes, Ry/au):

     atom    1 type  1   force =     0.04476669    0.04476669    0.00000000
     atom    2 type  1   force =     0.00843850    0.00843850    0.00000000
     atom    3 type  2   force =     0.01116726   -0.00591768    0.00000000
     atom    4 type  2   force =    -0.00591768    0.01116726    0.00000000
     atom    5 type  2   force =    -0.02020681   -0.02020681    0.00000000
     atom    6 type  2   force =    -0.03824796   -0.03824796    0.00000000

     Total force =     0.090622     Total SCF correction =     0.000003


     Computing stress (Cartesian axis) and pressure

          total   stress  (Ry/bohr**3)                   (kbar)     P=  -26.31
  -0.00037477   0.00000673   0.00000000        -55.13      0.99      0.00
   0.00000673  -0.00037477   0.00000000          0.99    -55.13      0.00
   0.00000000   0.00000000   0.00021303          0.00      0.00     31.34


     number of scf cycles    =   8
     number of bfgs steps    =   5

     enthalpy old            =    -442.3780353311 Ry
     enthalpy new            =    -442.3832169658 Ry

     CASE: enthalpy_new < enthalpy_old

     new trust radius        =       0.0280385248 bohr
     new conv_thr            =            1.0E-12 Ry

     new unit-cell volume =    257.76066 a.u.^3 (    38.19619 Ang^3 )
     density =     13.10374 g/cm^3

CELL_PARAMETERS (alat=  9.11000000)
   0.792013241   0.000000000   0.000000000
   0.000000000   0.792013241   0.000000000
   0.000000000   0.000000000   0.543496327

ATOMIC_POSITIONS (crystal)
Sn       0.001626875   0.001626875   0.000000000
Sn       0.500340644   0.500340644   0.500000000
O        0.801132939   0.197565428   0.500000000
O        0.197565428   0.801132939   0.500000000
O        0.300484545   0.300484545   0.000000000
O        0.696849569   0.696849569   0.000000000



     Writing output data file SnO2.save
     NEW-OLD atomic charge density approx. for the potential

     Check: negative/imaginary core charge=   -0.000737    0.000000
     extrapolated charge   51.92373, renormalised to   52.00000

     total cpu time spent up to now is     1674.2 secs

     Self-consistent Calculation

     iteration #  1     ecut=    25.00 Ry     beta= 0.70
     Davidson diagonalization with overlap
     ethr =  1.00E-06,  avg # of iterations =  4.2

     total cpu time spent up to now is     1698.6 secs

     total energy              =    -442.38194051 Ry
     Harris-Foulkes estimate   =    -442.44874581 Ry
     estimated scf accuracy    <       0.00064763 Ry

     iteration #  2     ecut=    25.00 Ry     beta= 0.70
     Davidson diagonalization with overlap
     ethr =  1.25E-06,  avg # of iterations =  2.0

     total cpu time spent up to now is     1713.8 secs

     total energy              =    -442.38217724 Ry
     Harris-Foulkes estimate   =    -442.38224990 Ry
     estimated scf accuracy    <       0.00015387 Ry

     iteration #  3     ecut=    25.00 Ry     beta= 0.70
     Davidson diagonalization with overlap
     ethr =  2.96E-07,  avg # of iterations =  2.0

     total cpu time spent up to now is     1727.4 secs

     total energy              =    -442.38220062 Ry
     Harris-Foulkes estimate   =    -442.38220173 Ry
     estimated scf accuracy    <       0.00000859 Ry

     iteration #  4     ecut=    25.00 Ry     beta= 0.70
     Davidson diagonalization with overlap
     ethr =  1.65E-08,  avg # of iterations =  2.0

     total cpu time spent up to now is     1742.6 secs

     total energy              =    -442.38220220 Ry
     Harris-Foulkes estimate   =    -442.38220346 Ry
     estimated scf accuracy    <       0.00000238 Ry

     iteration #  5     ecut=    25.00 Ry     beta= 0.70
     Davidson diagonalization with overlap
     ethr =  4.58E-09,  avg # of iterations =  2.3

     total cpu time spent up to now is     1757.2 secs

     total energy              =    -442.38220280 Ry
     Harris-Foulkes estimate   =    -442.38220287 Ry
     estimated scf accuracy    <       0.00000017 Ry

     iteration #  6     ecut=    25.00 Ry     beta= 0.70
     Davidson diagonalization with overlap
     ethr =  3.23E-10,  avg # of iterations =  2.0

     total cpu time spent up to now is     1771.7 secs

     total energy              =    -442.38220284 Ry
     Harris-Foulkes estimate   =    -442.38220284 Ry
     estimated scf accuracy    <          1.0E-08 Ry

     iteration #  7     ecut=    25.00 Ry     beta= 0.70
     Davidson diagonalization with overlap
     ethr =  1.92E-11,  avg # of iterations =  2.0

     total cpu time spent up to now is     1786.7 secs

     total energy              =    -442.38220284 Ry
     Harris-Foulkes estimate   =    -442.38220284 Ry
     estimated scf accuracy    <          2.3E-10 Ry

     iteration #  8     ecut=    25.00 Ry     beta= 0.70
     Davidson diagonalization with overlap
     ethr =  4.35E-13,  avg # of iterations =  2.7

     total cpu time spent up to now is     1801.8 secs

     total energy              =    -442.38220284 Ry
     Harris-Foulkes estimate   =    -442.38220284 Ry
     estimated scf accuracy    <          3.4E-11 Ry

     iteration #  9     ecut=    25.00 Ry     beta= 0.70
     Davidson diagonalization with overlap
     ethr =  1.00E-13,  avg # of iterations =  2.6

     total cpu time spent up to now is     1815.5 secs

     total energy              =    -442.38220284 Ry
     Harris-Foulkes estimate   =    -442.38220284 Ry
     estimated scf accuracy    <          2.9E-12 Ry

     iteration # 10     ecut=    25.00 Ry     beta= 0.70
     Davidson diagonalization with overlap
     ethr =  1.00E-13,  avg # of iterations =  1.0

     total cpu time spent up to now is     1826.0 secs

     End of self-consistent calculation

     Number of k-points >= 100: set verbosity='high' to print the bands.

     highest occupied level (ev):    24.7806

!    total energy              =    -442.38220284 Ry
     Harris-Foulkes estimate   =    -442.38220284 Ry
     estimated scf accuracy    <          1.0E-13 Ry

     The total energy is the sum of the following terms:

     one-electron contribution =      -5.80568811 Ry
     hartree contribution      =      69.30087602 Ry
     xc contribution           =    -125.63751598 Ry
     ewald contribution        =    -380.23987477 Ry

     convergence has been achieved in  10 iterations

     Forces acting on atoms (cartesian axes, Ry/au):

     atom    1 type  1   force =    -0.07576323   -0.07576323    0.00000000
     atom    2 type  1   force =    -0.01486603   -0.01486603    0.00000000
     atom    3 type  2   force =    -0.00432397   -0.01297658    0.00000000
     atom    4 type  2   force =    -0.01297658   -0.00432397    0.00000000
     atom    5 type  2   force =     0.05903824    0.05903824    0.00000000
     atom    6 type  2   force =     0.04889157    0.04889157    0.00000000

     Total force =     0.155075     Total SCF correction =     0.000001


     Computing stress (Cartesian axis) and pressure

          total   stress  (Ry/bohr**3)                   (kbar)     P=   19.49
  -0.00003799   0.00002164   0.00000000         -5.59      3.18      0.00
   0.00002164  -0.00003799   0.00000000          3.18     -5.59      0.00
   0.00000000   0.00000000   0.00047340          0.00      0.00     69.64


     number of scf cycles    =   9
     number of bfgs steps    =   6

     enthalpy old            =    -442.3832169658 Ry
     enthalpy new            =    -442.3822028386 Ry

     CASE: enthalpy_new > enthalpy_old

     new trust radius        =       0.0110244302 bohr
     new conv_thr            =            1.0E-12 Ry

     new unit-cell volume =    257.98995 a.u.^3 (    38.23017 Ang^3 )
     density =     13.09210 g/cm^3

CELL_PARAMETERS (alat=  9.11000000)
   0.792468465   0.000000000   0.000000000
   0.000000000   0.792468465   0.000000000
   0.000000000   0.000000000   0.543355007

ATOMIC_POSITIONS (crystal)
Sn      -0.000037935  -0.000037935   0.000000000
Sn       0.500016242   0.500016242   0.500000000
O        0.800833392   0.197691478   0.500000000
O        0.197691478   0.800833392   0.500000000
O        0.301333913   0.301333913   0.000000000
O        0.698162910   0.698162910   0.000000000



     Writing output data file SnO2.save
     NEW-OLD atomic charge density approx. for the potential

     Check: negative/imaginary core charge=   -0.000739    0.000000
     extrapolated charge   52.04621, renormalised to   52.00000

     total cpu time spent up to now is     1832.2 secs

     Self-consistent Calculation

     iteration #  1     ecut=    25.00 Ry     beta= 0.70
     Davidson diagonalization with overlap
     ethr =  1.00E-06,  avg # of iterations =  4.0

     total cpu time spent up to now is     1855.3 secs

     total energy              =    -442.38385416 Ry
     Harris-Foulkes estimate   =    -442.34363272 Ry
     estimated scf accuracy    <       0.00024147 Ry

     iteration #  2     ecut=    25.00 Ry     beta= 0.70
     Davidson diagonalization with overlap
     ethr =  4.64E-07,  avg # of iterations =  2.0

     total cpu time spent up to now is     1870.5 secs

     total energy              =    -442.38394302 Ry
     Harris-Foulkes estimate   =    -442.38397037 Ry
     estimated scf accuracy    <       0.00005755 Ry

     iteration #  3     ecut=    25.00 Ry     beta= 0.70
     Davidson diagonalization with overlap
     ethr =  1.11E-07,  avg # of iterations =  2.0

     total cpu time spent up to now is     1884.1 secs

     total energy              =    -442.38395172 Ry
     Harris-Foulkes estimate   =    -442.38395227 Ry
     estimated scf accuracy    <       0.00000336 Ry

     iteration #  4     ecut=    25.00 Ry     beta= 0.70
     Davidson diagonalization with overlap
     ethr =  6.45E-09,  avg # of iterations =  2.0

     total cpu time spent up to now is     1899.4 secs

     total energy              =    -442.38395236 Ry
     Harris-Foulkes estimate   =    -442.38395288 Ry
     estimated scf accuracy    <       0.00000099 Ry

     iteration #  5     ecut=    25.00 Ry     beta= 0.70
     Davidson diagonalization with overlap
     ethr =  1.90E-09,  avg # of iterations =  2.2

     total cpu time spent up to now is     1913.9 secs

     total energy              =    -442.38395260 Ry
     Harris-Foulkes estimate   =    -442.38395263 Ry
     estimated scf accuracy    <       0.00000006 Ry

     iteration #  6     ecut=    25.00 Ry     beta= 0.70
     Davidson diagonalization with overlap
     ethr =  1.15E-10,  avg # of iterations =  2.0

     total cpu time spent up to now is     1928.4 secs

     total energy              =    -442.38395262 Ry
     Harris-Foulkes estimate   =    -442.38395262 Ry
     estimated scf accuracy    <          3.6E-09 Ry

     iteration #  7     ecut=    25.00 Ry     beta= 0.70
     Davidson diagonalization with overlap
     ethr =  7.01E-12,  avg # of iterations =  2.0

     total cpu time spent up to now is     1943.3 secs

     total energy              =    -442.38395262 Ry
     Harris-Foulkes estimate   =    -442.38395262 Ry
     estimated scf accuracy    <          1.0E-10 Ry

     iteration #  8     ecut=    25.00 Ry     beta= 0.70
     Davidson diagonalization with overlap
     ethr =  1.92E-13,  avg # of iterations =  2.9

     total cpu time spent up to now is     1958.3 secs

     total energy              =    -442.38395262 Ry
     Harris-Foulkes estimate   =    -442.38395262 Ry
     estimated scf accuracy    <          1.6E-11 Ry

     iteration #  9     ecut=    25.00 Ry     beta= 0.70
     Davidson diagonalization with overlap
     ethr =  1.00E-13,  avg # of iterations =  2.0

     total cpu time spent up to now is     1970.3 secs

     End of self-consistent calculation

     Number of k-points >= 100: set verbosity='high' to print the bands.

     highest occupied level (ev):    24.7468

!    total energy              =    -442.38395262 Ry
     Harris-Foulkes estimate   =    -442.38395262 Ry
     estimated scf accuracy    <          9.4E-13 Ry

     The total energy is the sum of the following terms:

     one-electron contribution =      -5.95445624 Ry
     hartree contribution      =      69.32479520 Ry
     xc contribution           =    -125.62676152 Ry
     ewald contribution        =    -380.12753005 Ry

     convergence has been achieved in   9 iterations

     Forces acting on atoms (cartesian axes, Ry/au):

     atom    1 type  1   force =    -0.00278888   -0.00278888    0.00000000
     atom    2 type  1   force =    -0.00072625   -0.00072625    0.00000000
     atom    3 type  2   force =     0.00504338   -0.00864705    0.00000000
     atom    4 type  2   force =    -0.00864705    0.00504338    0.00000000
     atom    5 type  2   force =     0.01000061    0.01000061    0.00000000
     atom    6 type  2   force =    -0.00288181   -0.00288181    0.00000000

     Total force =     0.020824     Total SCF correction =     0.000002


     Computing stress (Cartesian axis) and pressure

          total   stress  (Ry/bohr**3)                   (kbar)     P=   -9.60
  -0.00025488  -0.00000185   0.00000000        -37.49     -0.27      0.00
  -0.00000185  -0.00025488   0.00000000         -0.27    -37.49      0.00
   0.00000000   0.00000000   0.00031394          0.00      0.00     46.18


     number of scf cycles    =  10
     number of bfgs steps    =   6

     enthalpy old            =    -442.3832169658 Ry
     enthalpy new            =    -442.3839526165 Ry

     CASE: enthalpy_new < enthalpy_old

     new trust radius        =       0.0117172172 bohr
     new conv_thr            =            1.0E-12 Ry

     new unit-cell volume =    257.76385 a.u.^3 (    38.19666 Ang^3 )
     density =     13.10358 g/cm^3

CELL_PARAMETERS (alat=  9.11000000)
   0.790687093   0.000000000   0.000000000
   0.000000000   0.790687093   0.000000000
   0.000000000   0.000000000   0.545327716

ATOMIC_POSITIONS (crystal)
Sn      -0.000041677  -0.000041677   0.000000000
Sn       0.499990770   0.499990770   0.500000000
O        0.801716301   0.196525726   0.500000000
O        0.196525726   0.801716301   0.500000000
O        0.302481562   0.302481562   0.000000000
O        0.697327319   0.697327319   0.000000000



     Writing output data file SnO2.save
     NEW-OLD atomic charge density approx. for the potential

     Check: negative/imaginary core charge=   -0.000739    0.000000
     extrapolated charge   51.95439, renormalised to   52.00000

     total cpu time spent up to now is     1976.6 secs

     Self-consistent Calculation

     iteration #  1     ecut=    25.00 Ry     beta= 0.70
     Davidson diagonalization with overlap
     ethr =  1.00E-06,  avg # of iterations =  4.0

     total cpu time spent up to now is     1998.5 secs

     total energy              =    -442.38416091 Ry
     Harris-Foulkes estimate   =    -442.42391031 Ry
     estimated scf accuracy    <       0.00021111 Ry

     iteration #  2     ecut=    25.00 Ry     beta= 0.70
     Davidson diagonalization with overlap
     ethr =  4.06E-07,  avg # of iterations =  2.0

     total cpu time spent up to now is     2013.7 secs

     total energy              =    -442.38425402 Ry
     Harris-Foulkes estimate   =    -442.38427830 Ry
     estimated scf accuracy    <       0.00004898 Ry

     iteration #  3     ecut=    25.00 Ry     beta= 0.70
     Davidson diagonalization with overlap
     ethr =  9.42E-08,  avg # of iterations =  2.0

     total cpu time spent up to now is     2027.0 secs

     total energy              =    -442.38426000 Ry
     Harris-Foulkes estimate   =    -442.38426038 Ry
     estimated scf accuracy    <       0.00000221 Ry

     iteration #  4     ecut=    25.00 Ry     beta= 0.70
     Davidson diagonalization with overlap
     ethr =  4.24E-09,  avg # of iterations =  2.0

     total cpu time spent up to now is     2041.9 secs

     total energy              =    -442.38426042 Ry
     Harris-Foulkes estimate   =    -442.38426051 Ry
     estimated scf accuracy    <       0.00000018 Ry

     iteration #  5     ecut=    25.00 Ry     beta= 0.70
     Davidson diagonalization with overlap
     ethr =  3.49E-10,  avg # of iterations =  2.0

     total cpu time spent up to now is     2056.8 secs

     total energy              =    -442.38426046 Ry
     Harris-Foulkes estimate   =    -442.38426047 Ry
     estimated scf accuracy    <       0.00000003 Ry

     iteration #  6     ecut=    25.00 Ry     beta= 0.70
     Davidson diagonalization with overlap
     ethr =  5.87E-11,  avg # of iterations =  2.0

     total cpu time spent up to now is     2071.6 secs

     total energy              =    -442.38426047 Ry
     Harris-Foulkes estimate   =    -442.38426047 Ry
     estimated scf accuracy    <          3.3E-09 Ry

     iteration #  7     ecut=    25.00 Ry     beta= 0.70
     Davidson diagonalization with overlap
     ethr =  6.31E-12,  avg # of iterations =  2.0

     total cpu time spent up to now is     2085.5 secs

     total energy              =    -442.38426047 Ry
     Harris-Foulkes estimate   =    -442.38426047 Ry
     estimated scf accuracy    <          5.5E-11 Ry

     iteration #  8     ecut=    25.00 Ry     beta= 0.70
     Davidson diagonalization with overlap
     ethr =  1.06E-13,  avg # of iterations =  2.1

     total cpu time spent up to now is     2100.8 secs

     total energy              =    -442.38426047 Ry
     Harris-Foulkes estimate   =    -442.38426047 Ry
     estimated scf accuracy    <          2.5E-12 Ry

     iteration #  9     ecut=    25.00 Ry     beta= 0.70
     Davidson diagonalization with overlap
     ethr =  1.00E-13,  avg # of iterations =  1.0

     total cpu time spent up to now is     2111.2 secs

     End of self-consistent calculation

     Number of k-points >= 100: set verbosity='high' to print the bands.

     highest occupied level (ev):    24.8058

!    total energy              =    -442.38426047 Ry
     Harris-Foulkes estimate   =    -442.38426047 Ry
[...]


     Computing stress (Cartesian axis) and pressure

          total   stress  (Ry/bohr**3)                   (kbar)     P=   -0.31
  -0.00001178   0.00716051   0.00000000         -1.73   1053.35      0.00
   0.00716051  -0.00001178   0.00000000       1053.35     -1.73      0.00
   0.00000000   0.00000000   0.00001723          0.00      0.00      2.53


     number of scf cycles    =  38
     number of bfgs steps    =  32

     enthalpy old            =    -442.6684737383 Ry
     enthalpy new            =    -442.6684927198 Ry

     CASE: enthalpy_new < enthalpy_old

     new trust radius        =       0.0008125684 bohr
     new conv_thr            =            1.0E-12 Ry

     new unit-cell volume =    250.42108 a.u.^3 (    37.10858 Ang^3 )
     density =     13.48780 g/cm^3

CELL_PARAMETERS (alat=  9.11000000)
   0.780804522   0.000000000   0.000000000
   0.000000000   0.780804522   0.000000000
   0.000000000   0.000000000   0.543289252

ATOMIC_POSITIONS (crystal)
Sn       0.046616199   0.046616199   0.000000000
Sn       0.555527296   0.555527296   0.500000000
O        0.703271488   0.115711950   0.500000000
O        0.115711950   0.703271488   0.500000000
O        0.344148056   0.344148056   0.000000000
O        0.732725011   0.732725011   0.000000000



     Writing output data file SnO2.save
     NEW-OLD atomic charge density approx. for the potential

     Check: negative/imaginary core charge=   -0.000687    0.000000
     extrapolated charge   51.99791, renormalised to   52.00000

     total cpu time spent up to now is     6577.4 secs

     Self-consistent Calculation

     iteration #  1     ecut=    25.00 Ry     beta= 0.70
     Davidson diagonalization with overlap
     ethr =  1.00E-06,  avg # of iterations =  2.0

     Threshold (ethr) on eigenvalues was too large:
     Diagonalizing with lowered threshold

     Davidson diagonalization with overlap
     ethr =  7.78E-10,  avg # of iterations =  3.4

     total cpu time spent up to now is     6609.0 secs

     total energy              =    -442.66849414 Ry
     Harris-Foulkes estimate   =    -442.66973960 Ry
     estimated scf accuracy    <       0.00000055 Ry

     iteration #  2     ecut=    25.00 Ry     beta= 0.70
     Davidson diagonalization with overlap
     ethr =  1.05E-09,  avg # of iterations =  2.9

     total cpu time spent up to now is     6625.5 secs

     total energy              =    -442.66849434 Ry
     Harris-Foulkes estimate   =    -442.66849448 Ry
     estimated scf accuracy    <       0.00000028 Ry

     iteration #  3     ecut=    25.00 Ry     beta= 0.70
     Davidson diagonalization with overlap
     ethr =  5.31E-10,  avg # of iterations =  2.0

     total cpu time spent up to now is     6640.0 secs

     total energy              =    -442.66849439 Ry
     Harris-Foulkes estimate   =    -442.66849439 Ry
     estimated scf accuracy    <       0.00000002 Ry

     iteration #  4     ecut=    25.00 Ry     beta= 0.70
     Davidson diagonalization with overlap
     ethr =  3.07E-11,  avg # of iterations =  2.8

     total cpu time spent up to now is     6656.7 secs

     total energy              =    -442.66849439 Ry
     Harris-Foulkes estimate   =    -442.66849439 Ry
     estimated scf accuracy    <          4.4E-09 Ry

     iteration #  5     ecut=    25.00 Ry     beta= 0.70
     Davidson diagonalization with overlap
     ethr =  8.49E-12,  avg # of iterations =  2.8

     total cpu time spent up to now is     6671.3 secs

     total energy              =    -442.66849439 Ry
     Harris-Foulkes estimate   =    -442.66849439 Ry
     estimated scf accuracy    <          2.4E-10 Ry

     iteration #  6     ecut=    25.00 Ry     beta= 0.70
     Davidson diagonalization with overlap
     ethr =  4.56E-13,  avg # of iterations =  2.7

     total cpu time spent up to now is     6685.8 secs

     total energy              =    -442.66849439 Ry
     Harris-Foulkes estimate   =    -442.66849439 Ry
     estimated scf accuracy    <          1.6E-11 Ry

     iteration #  7     ecut=    25.00 Ry     beta= 0.70
     Davidson diagonalization with overlap
     ethr =  1.00E-13,  avg # of iterations =  2.0

     total cpu time spent up to now is     6697.8 secs

     total energy              =    -442.66849439 Ry
     Harris-Foulkes estimate   =    -442.66849439 Ry
     estimated scf accuracy    <          1.9E-12 Ry

     iteration #  8     ecut=    25.00 Ry     beta= 0.70
     Davidson diagonalization with overlap
     ethr =  1.00E-13,  avg # of iterations =  1.0

     total cpu time spent up to now is     6708.4 secs

     End of self-consistent calculation

     Number of k-points >= 100: set verbosity='high' to print the bands.

     highest occupied level (ev):    26.0514

!    total energy              =    -442.66849439 Ry
     Harris-Foulkes estimate   =    -442.66849439 Ry
     estimated scf accuracy    <          3.4E-14 Ry

     The total energy is the sum of the following terms:

     one-electron contribution =      12.82941591 Ry
     hartree contribution      =      61.94702240 Ry
     xc contribution           =    -125.33805395 Ry
     ewald contribution        =    -392.10687876 Ry

     convergence has been achieved in   8 iterations

     Forces acting on atoms (cartesian axes, Ry/au):

     atom    1 type  1   force =     0.00011352    0.00011352    0.00000000
     atom    2 type  1   force =    -0.00001706   -0.00001706    0.00000000
     atom    3 type  2   force =    -0.00013449    0.00029101    0.00000000
     atom    4 type  2   force =     0.00029101   -0.00013449    0.00000000
     atom    5 type  2   force =    -0.00018570   -0.00018570    0.00000000
     atom    6 type  2   force =    -0.00006728   -0.00006728    0.00000000

     Total force =     0.000557     Total SCF correction =     0.000001


     Computing stress (Cartesian axis) and pressure

          total   stress  (Ry/bohr**3)                   (kbar)     P=    0.23
   0.00000327   0.00716238   0.00000000          0.48   1053.62      0.00
   0.00716238   0.00000327   0.00000000       1053.62      0.48      0.00
   0.00000000   0.00000000  -0.00000180          0.00      0.00     -0.26


     number of scf cycles    =  39
     number of bfgs steps    =  33

     enthalpy old            =    -442.6684927198 Ry
     enthalpy new            =    -442.6684943918 Ry

     CASE: enthalpy_new < enthalpy_old

     new trust radius        =       0.0002602461 bohr
     new conv_thr            =            1.0E-12 Ry

     new unit-cell volume =    250.42420 a.u.^3 (    37.10904 Ang^3 )
     density =     13.48763 g/cm^3

CELL_PARAMETERS (alat=  9.11000000)
   0.780820355   0.000000000   0.000000000
   0.000000000   0.780820355   0.000000000
   0.000000000   0.000000000   0.543273995

ATOMIC_POSITIONS (crystal)
Sn       0.046608295   0.046608295   0.000000000
Sn       0.555525067   0.555525067   0.500000000
O        0.703264470   0.115747857   0.500000000
O        0.115747857   0.703264470   0.500000000
O        0.344125991   0.344125991   0.000000000
O        0.732728320   0.732728320   0.000000000



     Writing output data file SnO2.save
     NEW-OLD atomic charge density approx. for the potential

     Check: negative/imaginary core charge=   -0.000687    0.000000
     extrapolated charge   52.00065, renormalised to   52.00000

     total cpu time spent up to now is     6714.7 secs

     Self-consistent Calculation

     iteration #  1     ecut=    25.00 Ry     beta= 0.70
     Davidson diagonalization with overlap
     ethr =  1.00E-06,  avg # of iterations =  1.0

     Threshold (ethr) on eigenvalues was too large:
     Diagonalizing with lowered threshold

     Davidson diagonalization with overlap
     ethr =  2.00E-10,  avg # of iterations =  4.0

     total cpu time spent up to now is     6747.2 secs

     total energy              =    -442.66849446 Ry
     Harris-Foulkes estimate   =    -442.66810791 Ry
     estimated scf accuracy    <       0.00000008 Ry

     iteration #  2     ecut=    25.00 Ry     beta= 0.70
     Davidson diagonalization with overlap
     ethr =  1.54E-10,  avg # of iterations =  3.0

     total cpu time spent up to now is     6764.0 secs

     total energy              =    -442.66849448 Ry
     Harris-Foulkes estimate   =    -442.66849451 Ry
     estimated scf accuracy    <       0.00000004 Ry

     iteration #  3     ecut=    25.00 Ry     beta= 0.70
     Davidson diagonalization with overlap
     ethr =  8.26E-11,  avg # of iterations =  2.1

     total cpu time spent up to now is     6778.7 secs

     total energy              =    -442.66849449 Ry
     Harris-Foulkes estimate   =    -442.66849449 Ry
     estimated scf accuracy    <          2.1E-09 Ry

     iteration #  4     ecut=    25.00 Ry     beta= 0.70
     Davidson diagonalization with overlap
     ethr =  3.96E-12,  avg # of iterations =  2.9

     total cpu time spent up to now is     6795.0 secs

     total energy              =    -442.66849449 Ry
     Harris-Foulkes estimate   =    -442.66849449 Ry
     estimated scf accuracy    <          5.0E-10 Ry

     iteration #  5     ecut=    25.00 Ry     beta= 0.70
     Davidson diagonalization with overlap
     ethr =  9.55E-13,  avg # of iterations =  2.8

     total cpu time spent up to now is     6809.6 secs

     total energy              =    -442.66849449 Ry
     Harris-Foulkes estimate   =    -442.66849449 Ry
     estimated scf accuracy    <          4.1E-11 Ry

     iteration #  6     ecut=    25.00 Ry     beta= 0.70
     Davidson diagonalization with overlap
     ethr =  1.00E-13,  avg # of iterations =  2.7

     total cpu time spent up to now is     6823.6 secs

     total energy              =    -442.66849449 Ry
     Harris-Foulkes estimate   =    -442.66849449 Ry
     estimated scf accuracy    <          4.5E-12 Ry

     iteration #  7     ecut=    25.00 Ry     beta= 0.70
     Davidson diagonalization with overlap
     ethr =  1.00E-13,  avg # of iterations =  1.0

     total cpu time spent up to now is     6834.5 secs

     End of self-consistent calculation

     Number of k-points >= 100: set verbosity='high' to print the bands.

     highest occupied level (ev):    26.0505

!    total energy              =    -442.66849449 Ry
     Harris-Foulkes estimate   =    -442.66849449 Ry
     estimated scf accuracy    <          3.2E-13 Ry

     The total energy is the sum of the following terms:

     one-electron contribution =      12.82610971 Ry
     hartree contribution      =      61.94774233 Ry
     xc contribution           =    -125.33802192 Ry
     ewald contribution        =    -392.10432460 Ry

     convergence has been achieved in   7 iterations

     Forces acting on atoms (cartesian axes, Ry/au):

     atom    1 type  1   force =     0.00000393    0.00000393    0.00000000
     atom    2 type  1   force =     0.00000190    0.00000190    0.00000000
     atom    3 type  2   force =     0.00001880   -0.00006486    0.00000000
     atom    4 type  2   force =    -0.00006486    0.00001880    0.00000000
     atom    5 type  2   force =     0.00006852    0.00006852    0.00000000
     atom    6 type  2   force =    -0.00002828   -0.00002828    0.00000000

     Total force =     0.000142     Total SCF correction =     0.000003


     Computing stress (Cartesian axis) and pressure

          total   stress  (Ry/bohr**3)                   (kbar)     P=    0.12
   0.00000106   0.00716133   0.00000000          0.16   1053.47      0.00
   0.00716133   0.00000106   0.00000000       1053.47      0.16      0.00
   0.00000000   0.00000000   0.00000023          0.00      0.00      0.03


     number of scf cycles    =  40
     number of bfgs steps    =  34

     enthalpy old            =    -442.6684943918 Ry
     enthalpy new            =    -442.6684944925 Ry

     CASE: enthalpy_new < enthalpy_old

     small trust_radius: resetting bfgs history

     new trust radius        =       0.0000968987 bohr
     new conv_thr            =            1.0E-12 Ry

     new unit-cell volume =    250.43897 a.u.^3 (    37.11123 Ang^3 )
     density =     13.48684 g/cm^3

CELL_PARAMETERS (alat=  9.11000000)
   0.780841136   0.000000000   0.000000000
   0.000000000   0.780841136   0.000000000
   0.000000000   0.000000000   0.543277107

ATOMIC_POSITIONS (crystal)
Sn       0.046608846   0.046608846   0.000000000
Sn       0.555525334   0.555525334   0.500000000
O        0.703267112   0.115738740   0.500000000
O        0.115738740   0.703267112   0.500000000
O        0.344135624   0.344135624   0.000000000
O        0.732724344   0.732724344   0.000000000



     Writing output data file SnO2.save
     NEW-OLD atomic charge density approx. for the potential

     Check: negative/imaginary core charge=   -0.000687    0.000000
     extrapolated charge   52.00307, renormalised to   52.00000

     total cpu time spent up to now is     6840.8 secs

     Self-consistent Calculation

     iteration #  1     ecut=    25.00 Ry     beta= 0.70
     Davidson diagonalization with overlap
     ethr =  1.00E-06,  avg # of iterations =  1.0

     Threshold (ethr) on eigenvalues was too large:
     Diagonalizing with lowered threshold

     Davidson diagonalization with overlap
     ethr =  3.51E-10,  avg # of iterations =  3.0

     total cpu time spent up to now is     6866.3 secs

     total energy              =    -442.66849409 Ry
     Harris-Foulkes estimate   =    -442.66666645 Ry
     estimated scf accuracy    <       0.00000020 Ry

     iteration #  2     ecut=    25.00 Ry     beta= 0.70
     Davidson diagonalization with overlap
     ethr =  3.93E-10,  avg # of iterations =  3.3

     total cpu time spent up to now is     6885.7 secs

     total energy              =    -442.66849438 Ry
     Harris-Foulkes estimate   =    -442.66849451 Ry
     estimated scf accuracy    <       0.00000030 Ry

     iteration #  3     ecut=    25.00 Ry     beta= 0.70
     Davidson diagonalization with overlap
     ethr =  3.93E-10,  avg # of iterations =  2.0

     total cpu time spent up to now is     6898.6 secs

     total energy              =    -442.66849439 Ry
     Harris-Foulkes estimate   =    -442.66849441 Ry
     estimated scf accuracy    <       0.00000004 Ry

     iteration #  4     ecut=    25.00 Ry     beta= 0.70
     Davidson diagonalization with overlap
     ethr =  8.07E-11,  avg # of iterations =  1.0

     total cpu time spent up to now is     6909.2 secs

     total energy              =    -442.66849439 Ry
     Harris-Foulkes estimate   =    -442.66849440 Ry
     estimated scf accuracy    <       0.00000002 Ry

     iteration #  5     ecut=    25.00 Ry     beta= 0.70
     Davidson diagonalization with overlap
     ethr =  3.10E-11,  avg # of iterations =  2.1

     total cpu time spent up to now is     6924.6 secs

     total energy              =    -442.66849439 Ry
     Harris-Foulkes estimate   =    -442.66849439 Ry
     estimated scf accuracy    <          1.1E-10 Ry

     iteration #  6     ecut=    25.00 Ry     beta= 0.70
     Davidson diagonalization with overlap
     ethr =  2.03E-13,  avg # of iterations =  3.1

     total cpu time spent up to now is     6941.7 secs

     total energy              =    -442.66849439 Ry
     Harris-Foulkes estimate   =    -442.66849439 Ry
     estimated scf accuracy    <          5.2E-11 Ry

     iteration #  7     ecut=    25.00 Ry     beta= 0.70
     Davidson diagonalization with overlap
     ethr =  1.00E-13,  avg # of iterations =  2.0

     total cpu time spent up to now is     6954.5 secs

     total energy              =    -442.66849439 Ry
     Harris-Foulkes estimate   =    -442.66849439 Ry
     estimated scf accuracy    <          2.4E-11 Ry

     iteration #  8     ecut=    25.00 Ry     beta= 0.70
     Davidson diagonalization with overlap
     ethr =  1.00E-13,  avg # of iterations =  1.3

     total cpu time spent up to now is     6965.2 secs

     total energy              =    -442.66849439 Ry
     Harris-Foulkes estimate   =    -442.66849439 Ry
     estimated scf accuracy    <          2.7E-12 Ry

     iteration #  9     ecut=    25.00 Ry     beta= 0.70
     Davidson diagonalization with overlap
     ethr =  1.00E-13,  avg # of iterations =  1.0

     total cpu time spent up to now is     6975.9 secs

     End of self-consistent calculation

     Number of k-points >= 100: set verbosity='high' to print the bands.

     highest occupied level (ev):    26.0486

!    total energy              =    -442.66849439 Ry
     Harris-Foulkes estimate   =    -442.66849439 Ry
     estimated scf accuracy    <          9.8E-14 Ry

     The total energy is the sum of the following terms:

     one-electron contribution =      12.81436855 Ry
     hartree contribution      =      61.95037987 Ry
     xc contribution           =    -125.33734465 Ry
     ewald contribution        =    -392.09589816 Ry

     convergence has been achieved in   9 iterations

     Forces acting on atoms (cartesian axes, Ry/au):

     atom    1 type  1   force =     0.00012452    0.00012452    0.00000000
     atom    2 type  1   force =    -0.00006145   -0.00006145    0.00000000
     atom    3 type  2   force =    -0.00001537    0.00008193    0.00000000
     atom    4 type  2   force =     0.00008193   -0.00001537    0.00000000
     atom    5 type  2   force =    -0.00022024   -0.00022024    0.00000000
     atom    6 type  2   force =     0.00009061    0.00009061    0.00000000

     Total force =     0.000407     Total SCF correction =     0.000001


     Computing stress (Cartesian axis) and pressure

          total   stress  (Ry/bohr**3)                   (kbar)     P=   -1.68
  -0.00001395   0.00715932   0.00000000         -2.05   1053.17      0.00
   0.00715932  -0.00001395   0.00000000       1053.17     -2.05      0.00
   0.00000000   0.00000000  -0.00000643          0.00      0.00     -0.95


     number of scf cycles    =  41
     number of bfgs steps    =  35

     enthalpy old            =    -442.6684944925 Ry
     enthalpy new            =    -442.6684943895 Ry

     CASE: enthalpy_new > enthalpy_old

     new trust radius        =       0.0000121995 bohr

     trust_radius < trust_radius_min

     resetting bfgs history

     Message from routine bfgs:
     history already reset at previous step: stopping
     new conv_thr            =            1.0E-12 Ry

     new unit-cell volume =    250.43897 a.u.^3 (    37.11123 Ang^3 )
     density =     13.48684 g/cm^3

CELL_PARAMETERS (alat=  9.11000000)
   0.780841136   0.000000000   0.000000000
   0.000000000   0.780841136   0.000000000
   0.000000000   0.000000000   0.543277107

ATOMIC_POSITIONS (crystal)
Sn       0.046608846   0.046608846   0.000000000
Sn       0.555525334   0.555525334   0.500000000
O        0.703267112   0.115738740   0.500000000
O        0.115738740   0.703267112   0.500000000
O        0.344135623   0.344135623   0.000000000
O        0.732724345   0.732724345   0.000000000



     Writing output data file SnO2.save
     NEW-OLD atomic charge density approx. for the potential

     Check: negative/imaginary core charge=   -0.000687    0.000000

     total cpu time spent up to now is     6982.4 secs

     Self-consistent Calculation

     iteration #  1     ecut=    25.00 Ry     beta= 0.70
     Davidson diagonalization with overlap
     ethr =  1.00E-06,  avg # of iterations =  1.0

     Threshold (ethr) on eigenvalues was too large:
     Diagonalizing with lowered threshold

     Davidson diagonalization with overlap

 %%%%%%%%%%%%%%%%%%%%%%%%%%%%%%%%%%%%%%%%%%%%%%%%%%%%%%%%%%%%%%%%%%%%%%%%%%%%%%
     Error in routine c_bands (1):
     too many bands are not converged
 %%%%%%%%%%%%%%%%%%%%%%%%%%%%%%%%%%%%%%%%%%%%%%%%%%%%%%%%%%%%%%%%%%%%%%%%%%%%%%

     stopping ...

 %%%%%%%%%%%%%%%%%%%%%%%%%%%%%%%%%%%%%%%%%%%%%%%%%%%%%%%%%%%%%%%%%%%%%%%%%%%%%%
     Error in routine c_bands (1):
     too many bands are not converged
 %%%%%%%%%%%%%%%%%%%%%%%%%%%%%%%%%%%%%%%%%%%%%%%%%%%%%%%%%%%%%%%%%%%%%%%%%%%%%%

     stopping ...
