
     Program PWSCF v.6.2.2 starts on 10Apr2018 at 13:24:47 

     This program is part of the open-source Quantum ESPRESSO suite
     for quantum simulation of materials; please cite
         "P. Giannozzi et al., J. Phys.:Condens. Matter 21 395502 (2009);
         "P. Giannozzi et al., J. Phys.:Condens. Matter 29 465901 (2017);
          URL http://www.quantum-espresso.org", 
     in publications or presentations arising from this work. More details at
     http://www.quantum-espresso.org/quote

     Parallel version (MPI), running on     2 processors

     MPI processes distributed on     1 nodes
     R & G space division:  proc/nbgrp/npool/nimage =       2
     Reading input from Conv_acell-kp.in

     Current dimensions of program PWSCF are:
     Max number of different atomic species (ntypx) = 10
     Max number of k-points (npk) =  40000
     Max angular momentum in pseudopotentials (lmaxx) =  3

     Subspace diagonalization in iterative solution of the eigenvalue problem:
     a serial algorithm will be used

 
     Parallelization info
     --------------------
     sticks:   dense  smooth     PW     G-vecs:    dense   smooth      PW
     Min         332     332    110                 4313     4313     791
     Max         333     333    111                 4314     4314     792
     Sum         665     665    221                 8627     8627    1583
 


     bravais-lattice index     =            6
     lattice parameter (alat)  =       9.1100  a.u.
     unit-cell volume          =     506.5589 (a.u.)^3
     number of atoms/cell      =            6
     number of atomic types    =            2
     number of electrons       =        52.00
     number of Kohn-Sham states=           26
     kinetic-energy cutoff     =      25.0000  Ry
     charge density cutoff     =     100.0000  Ry
     convergence threshold     =      1.0E-12
     mixing beta               =       0.7000
     number of iterations used =            8  plain     mixing
     Exchange-correlation      = PBE ( 1  4  3  4 0 0)
     nstep                     =           50


     celldm(1)=   9.110000  celldm(2)=   0.000000  celldm(3)=   0.670000
     celldm(4)=   0.000000  celldm(5)=   0.000000  celldm(6)=   0.000000

     crystal axes: (cart. coord. in units of alat)
               a(1) = (   1.000000   0.000000   0.000000 )  
               a(2) = (   0.000000   1.000000   0.000000 )  
               a(3) = (   0.000000   0.000000   0.670000 )  

     reciprocal axes: (cart. coord. in units 2 pi/alat)
               b(1) = (  1.000000  0.000000  0.000000 )  
               b(2) = (  0.000000  1.000000  0.000000 )  
               b(3) = (  0.000000  0.000000  1.492537 )  


     PseudoPot. # 1 for Sn read from file:
     ../../Pseudo_potentials/Sn_PBE.upf
     MD5 check sum: 78e6386ae56e929f0568ae8bf606a80c
     Pseudo is Norm-conserving + core correction, Zval = 14.0
     Generated using ONCVPSP code by D. R. Hamann
     Using radial grid of 1628 points,  6 beta functions with: 
                l(1) =   0
                l(2) =   0
                l(3) =   1
                l(4) =   1
                l(5) =   2
                l(6) =   2

     PseudoPot. # 2 for O  read from file:
     ../../Pseudo_potentials/O_PBE.upf
     MD5 check sum: 3e3f909f7470e8921608ab6b1f57bbae
     Pseudo is Norm-conserving + core correction, Zval =  6.0
     Generated using ONCVPSP code by D. R. Hamann
     Using radial grid of  936 points,  5 beta functions with: 
                l(1) =   0
                l(2) =   0
                l(3) =   1
                l(4) =   1
                l(5) =   2

     atomic species   valence    mass     pseudopotential
        Sn            14.00   118.71000     Sn( 1.00)
        O              6.00    15.99900     O ( 1.00)

      4 Sym. Ops. (no inversion) found



   Cartesian axes

     site n.     atom                  positions (alat units)
         1           Sn  tau(   1) = (   0.0000000   0.0000000   0.0000000  )
         2           Sn  tau(   2) = (   0.5000000   0.5000000   0.3350000  )
         3           O   tau(   3) = (   0.8060000   0.1930000   0.3350000  )
         4           O   tau(   4) = (   0.1930000   0.8060000   0.3350000  )
         5           O   tau(   5) = (   0.3060000   0.3060000   0.0000000  )
         6           O   tau(   6) = (   0.6930000   0.6930000   0.0000000  )

     number of k points=  1596

     Number of k-points >= 100: set verbosity='high' to print them.

     Dense  grid:     8627 G-vectors     FFT dimensions: (  30,  30,  20)

     Estimated max dynamical RAM per process >     348.47 MB

     Estimated total dynamical RAM >     696.94 MB

     Check: negative/imaginary core charge=   -0.002394    0.000000

     Initial potential from superposition of free atoms
     Check: negative starting charge=   -0.009566

     starting charge   51.99690, renormalised to   52.00000

     negative rho (up, down):  9.566E-03 0.000E+00
     Starting wfc are   34 randomized atomic wfcs

     total cpu time spent up to now is       45.4 secs

     Self-consistent Calculation

     iteration #  1     ecut=    25.00 Ry     beta= 0.70
     Davidson diagonalization with overlap
     ethr =  1.00E-02,  avg # of iterations =  2.0

     negative rho (up, down):  2.854E-03 0.000E+00

     total cpu time spent up to now is      180.7 secs

     total energy              =    -429.62926230 Ry
     Harris-Foulkes estimate   =    -432.65877345 Ry
     estimated scf accuracy    <       4.17070160 Ry

     iteration #  2     ecut=    25.00 Ry     beta= 0.70
     Davidson diagonalization with overlap
     ethr =  8.02E-03,  avg # of iterations =  2.0

     negative rho (up, down):  8.830E-04 0.000E+00

     total cpu time spent up to now is      299.2 secs

     total energy              =    -430.40433403 Ry
     Harris-Foulkes estimate   =    -430.54526755 Ry
     estimated scf accuracy    <       0.24974210 Ry

     iteration #  3     ecut=    25.00 Ry     beta= 0.70
     Davidson diagonalization with overlap
     ethr =  4.80E-04,  avg # of iterations =  2.8

     negative rho (up, down):  1.592E-04 0.000E+00

     total cpu time spent up to now is      429.5 secs

     total energy              =    -430.45035227 Ry
     Harris-Foulkes estimate   =    -430.46412282 Ry
     estimated scf accuracy    <       0.02957061 Ry

     iteration #  4     ecut=    25.00 Ry     beta= 0.70
     Davidson diagonalization with overlap
     ethr =  5.69E-05,  avg # of iterations =  2.9

     total cpu time spent up to now is      559.3 secs

     total energy              =    -430.45574831 Ry
     Harris-Foulkes estimate   =    -430.45755941 Ry
     estimated scf accuracy    <       0.00354066 Ry

     iteration #  5     ecut=    25.00 Ry     beta= 0.70
     Davidson diagonalization with overlap
     ethr =  6.81E-06,  avg # of iterations =  3.0

     total cpu time spent up to now is      691.0 secs

     total energy              =    -430.45659271 Ry
     Harris-Foulkes estimate   =    -430.45667832 Ry
     estimated scf accuracy    <       0.00017502 Ry

     iteration #  6     ecut=    25.00 Ry     beta= 0.70
     Davidson diagonalization with overlap
     ethr =  3.37E-07,  avg # of iterations =  3.1

     total cpu time spent up to now is      823.4 secs

     total energy              =    -430.45663919 Ry
     Harris-Foulkes estimate   =    -430.45664375 Ry
     estimated scf accuracy    <       0.00001028 Ry

     iteration #  7     ecut=    25.00 Ry     beta= 0.70
     Davidson diagonalization with overlap
     ethr =  1.98E-08,  avg # of iterations =  3.0

     total cpu time spent up to now is      949.4 secs

     total energy              =    -430.45664042 Ry
     Harris-Foulkes estimate   =    -430.45664134 Ry
     estimated scf accuracy    <       0.00000236 Ry

     iteration #  8     ecut=    25.00 Ry     beta= 0.70
     Davidson diagonalization with overlap
     ethr =  4.54E-09,  avg # of iterations =  2.8

     total cpu time spent up to now is     1069.3 secs

     total energy              =    -430.45664075 Ry
     Harris-Foulkes estimate   =    -430.45664079 Ry
     estimated scf accuracy    <       0.00000008 Ry

     iteration #  9     ecut=    25.00 Ry     beta= 0.70
     Davidson diagonalization with overlap
     ethr =  1.57E-10,  avg # of iterations =  3.2

     total cpu time spent up to now is     1221.5 secs

     total energy              =    -430.45664078 Ry
     Harris-Foulkes estimate   =    -430.45664079 Ry
     estimated scf accuracy    <       0.00000002 Ry

     iteration # 10     ecut=    25.00 Ry     beta= 0.70
     Davidson diagonalization with overlap
     ethr =  3.81E-11,  avg # of iterations =  3.0

     total cpu time spent up to now is     1350.3 secs

     total energy              =    -430.45664078 Ry
     Harris-Foulkes estimate   =    -430.45664078 Ry
     estimated scf accuracy    <          9.3E-10 Ry

     iteration # 11     ecut=    25.00 Ry     beta= 0.70
     Davidson diagonalization with overlap
     ethr =  1.79E-12,  avg # of iterations =  3.1

     total cpu time spent up to now is     1484.0 secs

     total energy              =    -430.45664078 Ry
     Harris-Foulkes estimate   =    -430.45664078 Ry
     estimated scf accuracy    <          1.3E-10 Ry

     iteration # 12     ecut=    25.00 Ry     beta= 0.70
     Davidson diagonalization with overlap
     ethr =  2.43E-13,  avg # of iterations =  3.0

     total cpu time spent up to now is     1612.0 secs

     total energy              =    -430.45664078 Ry
     Harris-Foulkes estimate   =    -430.45664078 Ry
     estimated scf accuracy    <          1.2E-12 Ry

     iteration # 13     ecut=    25.00 Ry     beta= 0.70
     Davidson diagonalization with overlap
     ethr =  1.00E-13,  avg # of iterations =  1.0

     total cpu time spent up to now is     1704.5 secs

     End of self-consistent calculation

     Number of k-points >= 100: set verbosity='high' to print the bands.

     highest occupied level (ev):     9.8186

!    total energy              =    -430.45664078 Ry
     Harris-Foulkes estimate   =    -430.45664078 Ry
     estimated scf accuracy    <          1.0E-13 Ry

     The total energy is the sum of the following terms:

     one-electron contribution =     -96.65111326 Ry
     hartree contribution      =      85.51313452 Ry
     xc contribution           =    -116.83732370 Ry
     ewald contribution        =    -302.48133834 Ry

     convergence has been achieved in  13 iterations

     Forces acting on atoms (cartesian axes, Ry/au):

     atom    1 type  1   force =     0.00043279    0.00043279    0.00000000
     atom    2 type  1   force =    -0.00003326   -0.00003326    0.00000000
     atom    3 type  2   force =     0.01404311   -0.01355823    0.00000000
     atom    4 type  2   force =    -0.01355823    0.01404311    0.00000000
     atom    5 type  2   force =     0.01337382    0.01337382    0.00000000
     atom    6 type  2   force =    -0.01425823   -0.01425823    0.00000000

     Total force =     0.039074     Total SCF correction =     0.000001


     Computing stress (Cartesian axis) and pressure

          total   stress  (Ry/bohr**3)                   (kbar)     P=-9550.92
  -0.06527308   0.00000027  -0.00000000      -9602.00      0.04     -0.00
   0.00000027  -0.06527308   0.00000000          0.04  -9602.00      0.00
   0.00000000   0.00000000  -0.06423131          0.00      0.00  -9448.75


     BFGS Geometry Optimization

     number of scf cycles    =   1
     number of bfgs steps    =   0

     enthalpy new            =    -430.4566407804 Ry

     new trust radius        =       0.5000000000 bohr
     new conv_thr            =            1.0E-12 Ry

     new unit-cell volume =    356.52278 a.u.^3 (    52.83122 Ang^3 )
     density =      9.47381 g/cm^3

CELL_PARAMETERS (alat=  9.11000000)
   0.888922769   0.000000000   0.000000000
   0.000000000   0.888922769   0.000000000
   0.000000000   0.000000000   0.596766032

ATOMIC_POSITIONS (crystal)
Sn       0.000003234   0.000003234   0.000000000
Sn       0.499999751   0.499999751   0.500000000
O        0.806104929   0.192898694   0.500000000
O        0.192898694   0.806104929   0.500000000
O        0.306099928   0.306099928   0.000000000
O        0.692893464   0.692893464   0.000000000



     Writing output data file SnO2.save
     Check: negative starting charge=   -0.009566
     NEW-OLD atomic charge density approx. for the potential

     Check: negative/imaginary core charge=   -0.001408    0.000000
     Check: negative starting charge=   -0.001844

     negative rho (up, down):  1.259E+00 0.000E+00
     extrapolated charge   30.11805, renormalised to   52.00000

     total cpu time spent up to now is     1740.8 secs

     Self-consistent Calculation

     iteration #  1     ecut=    25.00 Ry     beta= 0.70
     Davidson diagonalization with overlap
     c_bands:  1 eigenvalues not converged
     c_bands:  1 eigenvalues not converged
     c_bands:  1 eigenvalues not converged
     c_bands:  1 eigenvalues not converged
     c_bands:  2 eigenvalues not converged
     c_bands:  1 eigenvalues not converged
     c_bands:  1 eigenvalues not converged
     c_bands:  1 eigenvalues not converged
     ethr =  1.00E-06,  avg # of iterations = 12.4

     total cpu time spent up to now is     2161.5 secs

     total energy              =    -402.05487915 Ry
     Harris-Foulkes estimate   =    -475.66337214 Ry
     estimated scf accuracy    <      58.33294994 Ry

     iteration #  2     ecut=    25.00 Ry     beta= 0.70
     Davidson diagonalization with overlap
     ethr =  1.00E-02,  avg # of iterations =  5.4

     total cpu time spent up to now is     2371.1 secs

     total energy              =    -436.52372927 Ry
     Harris-Foulkes estimate   =    -447.73513959 Ry
     estimated scf accuracy    <      17.35691396 Ry

     iteration #  3     ecut=    25.00 Ry     beta= 0.70
     Davidson diagonalization with overlap
     ethr =  1.00E-02,  avg # of iterations =  2.6

     total cpu time spent up to now is     2512.5 secs

     total energy              =    -439.52994080 Ry
     Harris-Foulkes estimate   =    -439.90083538 Ry
     estimated scf accuracy    <       0.69657492 Ry

     iteration #  4     ecut=    25.00 Ry     beta= 0.70
     Davidson diagonalization with overlap
     ethr =  1.34E-03,  avg # of iterations =  1.9

     total cpu time spent up to now is     2612.8 secs

     total energy              =    -439.47320298 Ry
     Harris-Foulkes estimate   =    -439.57673555 Ry
     estimated scf accuracy    <       0.16523058 Ry

     iteration #  5     ecut=    25.00 Ry     beta= 0.70
     Davidson diagonalization with overlap
     ethr =  3.18E-04,  avg # of iterations =  2.0

     negative rho (up, down):  1.284E-04 0.000E+00

     total cpu time spent up to now is     2727.2 secs

     total energy              =    -439.47224604 Ry
     Harris-Foulkes estimate   =    -439.49015339 Ry
     estimated scf accuracy    <       0.02392807 Ry

     iteration #  6     ecut=    25.00 Ry     beta= 0.70
     Davidson diagonalization with overlap
     ethr =  4.60E-05,  avg # of iterations =  2.0

     negative rho (up, down):  3.760E-04 0.000E+00

     total cpu time spent up to now is     2859.5 secs

     total energy              =    -439.47643858 Ry
     Harris-Foulkes estimate   =    -439.47721102 Ry
     estimated scf accuracy    <       0.00144562 Ry

     iteration #  7     ecut=    25.00 Ry     beta= 0.70
     Davidson diagonalization with overlap
     ethr =  2.78E-06,  avg # of iterations =  2.1

     negative rho (up, down):  4.773E-05 0.000E+00

     total cpu time spent up to now is     2987.7 secs

     total energy              =    -439.47714048 Ry
     Harris-Foulkes estimate   =    -439.47719281 Ry
     estimated scf accuracy    <       0.00008836 Ry

     iteration #  8     ecut=    25.00 Ry     beta= 0.70
     Davidson diagonalization with overlap
     ethr =  1.70E-07,  avg # of iterations =  2.0

     total cpu time spent up to now is     3112.6 secs

     total energy              =    -439.47715001 Ry
     Harris-Foulkes estimate   =    -439.47715392 Ry
     estimated scf accuracy    <       0.00000680 Ry

     iteration #  9     ecut=    25.00 Ry     beta= 0.70
     Davidson diagonalization with overlap
     ethr =  1.31E-08,  avg # of iterations =  2.5

     total cpu time spent up to now is     3246.5 secs

     total energy              =    -439.47715094 Ry
     Harris-Foulkes estimate   =    -439.47715124 Ry
     estimated scf accuracy    <       0.00000054 Ry

     iteration # 10     ecut=    25.00 Ry     beta= 0.70
     Davidson diagonalization with overlap
     ethr =  1.05E-09,  avg # of iterations =  2.8

     total cpu time spent up to now is     3373.2 secs

     total energy              =    -439.47715104 Ry
     Harris-Foulkes estimate   =    -439.47715107 Ry
     estimated scf accuracy    <       0.00000006 Ry

     iteration # 11     ecut=    25.00 Ry     beta= 0.70
     Davidson diagonalization with overlap
     ethr =  1.10E-10,  avg # of iterations =  2.6

     total cpu time spent up to now is     3507.9 secs

     total energy              =    -439.47715105 Ry
     Harris-Foulkes estimate   =    -439.47715105 Ry
     estimated scf accuracy    <          1.1E-09 Ry

     iteration # 12     ecut=    25.00 Ry     beta= 0.70
     Davidson diagonalization with overlap
     ethr =  2.16E-12,  avg # of iterations =  2.8

     total cpu time spent up to now is     3644.9 secs

     total energy              =    -439.47715105 Ry
     Harris-Foulkes estimate   =    -439.47715105 Ry
     estimated scf accuracy    <          4.9E-11 Ry

     iteration # 13     ecut=    25.00 Ry     beta= 0.70
     Davidson diagonalization with overlap
     ethr =  1.00E-13,  avg # of iterations =  2.6

     total cpu time spent up to now is     3777.9 secs

     total energy              =    -439.47715105 Ry
     Harris-Foulkes estimate   =    -439.47715105 Ry
     estimated scf accuracy    <          4.0E-12 Ry

     iteration # 14     ecut=    25.00 Ry     beta= 0.70
     Davidson diagonalization with overlap
     ethr =  1.00E-13,  avg # of iterations =  1.0

     total cpu time spent up to now is     3872.2 secs

     End of self-consistent calculation

     Number of k-points >= 100: set verbosity='high' to print the bands.

     highest occupied level (ev):    16.0469

!    total energy              =    -439.47715105 Ry
     Harris-Foulkes estimate   =    -439.47715105 Ry
     estimated scf accuracy    <          1.9E-13 Ry

     The total energy is the sum of the following terms:

     one-electron contribution =     -56.67868968 Ry
     hartree contribution      =      78.93363999 Ry
     xc contribution           =    -121.62120543 Ry
     ewald contribution        =    -340.11089592 Ry

     convergence has been achieved in  14 iterations

     Forces acting on atoms (cartesian axes, Ry/au):

     atom    1 type  1   force =    -0.00332183   -0.00332183    0.00000000
     atom    2 type  1   force =    -0.00269930   -0.00269930    0.00000000
     atom    3 type  2   force =    -0.05019271    0.04936678    0.00000000
     atom    4 type  2   force =     0.04936678   -0.05019271    0.00000000
     atom    5 type  2   force =    -0.04635249   -0.04635249    0.00000000
     atom    6 type  2   force =     0.05319954    0.05319954    0.00000000

     Total force =     0.141092     Total SCF correction =     0.000002


     Computing stress (Cartesian axis) and pressure

          total   stress  (Ry/bohr**3)                   (kbar)     P=-7230.35
  -0.05021122   0.00000034   0.00000000      -7386.32      0.05      0.00
   0.00000034  -0.05021122   0.00000000          0.05  -7386.32      0.00
   0.00000000   0.00000000  -0.04703027          0.00      0.00  -6918.39


     number of scf cycles    =   2
     number of bfgs steps    =   1

     enthalpy old            =    -430.4566407804 Ry
     enthalpy new            =    -439.4771510468 Ry

     CASE: enthalpy_new < enthalpy_old

     new trust radius        =       0.7078250195 bohr
     new conv_thr            =            1.0E-12 Ry

     new unit-cell volume =    217.66026 a.u.^3 (    32.25392 Ang^3 )
     density =     15.51790 g/cm^3

CELL_PARAMETERS (alat=  9.11000000)
   0.722306921   0.000000000   0.000000000
   0.000000000   0.722306921   0.000000000
   0.000000000   0.000000000   0.551798426

ATOMIC_POSITIONS (crystal)
Sn      -0.000690351  -0.000690351   0.000000000
Sn       0.499482745   0.499482745   0.500000000
O        0.794716603   0.204068903   0.500000000
O        0.204068903   0.794716603   0.500000000
O        0.295533876   0.295533876   0.000000000
O        0.704888225   0.704888225   0.000000000



     Writing output data file SnO2.save
     Check: negative starting charge=   -0.001844
     NEW-OLD atomic charge density approx. for the potential

     Check: negative/imaginary core charge=   -0.000515    0.000000

     negative rho (up, down):  2.450E+00 0.000E+00
     extrapolated charge   18.82710, renormalised to   52.00000

     total cpu time spent up to now is     3909.0 secs

     Self-consistent Calculation

     iteration #  1     ecut=    25.00 Ry     beta= 0.70
     Davidson diagonalization with overlap
     ethr =  1.00E-06,  avg # of iterations = 11.0

     total cpu time spent up to now is     4338.1 secs

     total energy              =    -392.73430041 Ry
     Harris-Foulkes estimate   =    -483.46000359 Ry
     estimated scf accuracy    <     130.62906555 Ry

     iteration #  2     ecut=    25.00 Ry     beta= 0.70
     Davidson diagonalization with overlap
     ethr =  1.00E-02,  avg # of iterations =  5.0

     total cpu time spent up to now is     4553.8 secs

     total energy              =    -437.81605711 Ry
     Harris-Foulkes estimate   =    -448.31486480 Ry
     estimated scf accuracy    <      15.22679454 Ry

     iteration #  3     ecut=    25.00 Ry     beta= 0.70
     Davidson diagonalization with overlap
     ethr =  1.00E-02,  avg # of iterations =  2.9

     total cpu time spent up to now is     4702.5 secs

     total energy              =    -441.19848371 Ry
     Harris-Foulkes estimate   =    -441.36324487 Ry
     estimated scf accuracy    <       0.31667500 Ry

     iteration #  4     ecut=    25.00 Ry     beta= 0.70
     Davidson diagonalization with overlap
     ethr =  6.09E-04,  avg # of iterations =  2.0

     total cpu time spent up to now is     4821.0 secs

     total energy              =    -441.21191020 Ry
     Harris-Foulkes estimate   =    -441.23242459 Ry
     estimated scf accuracy    <       0.03597940 Ry

     iteration #  5     ecut=    25.00 Ry     beta= 0.70
     Davidson diagonalization with overlap
     ethr =  6.92E-05,  avg # of iterations =  2.0

     total cpu time spent up to now is     4928.6 secs

     total energy              =    -441.21389349 Ry
     Harris-Foulkes estimate   =    -441.21469919 Ry
     estimated scf accuracy    <       0.00153174 Ry

     iteration #  6     ecut=    25.00 Ry     beta= 0.70
     Davidson diagonalization with overlap
     ethr =  2.95E-06,  avg # of iterations =  2.0

     total cpu time spent up to now is     5052.8 secs

     total energy              =    -441.21409258 Ry
     Harris-Foulkes estimate   =    -441.21412712 Ry
     estimated scf accuracy    <       0.00006186 Ry

     iteration #  7     ecut=    25.00 Ry     beta= 0.70
     Davidson diagonalization with overlap
     ethr =  1.19E-07,  avg # of iterations =  3.0

     total cpu time spent up to now is     5197.8 secs

     total energy              =    -441.21410810 Ry
     Harris-Foulkes estimate   =    -441.21411020 Ry
     estimated scf accuracy    <       0.00000472 Ry

     iteration #  8     ecut=    25.00 Ry     beta= 0.70
     Davidson diagonalization with overlap
     ethr =  9.07E-09,  avg # of iterations =  2.0

     total cpu time spent up to now is     5319.7 secs

     total energy              =    -441.21410883 Ry
     Harris-Foulkes estimate   =    -441.21410902 Ry
     estimated scf accuracy    <       0.00000036 Ry

     iteration #  9     ecut=    25.00 Ry     beta= 0.70
     Davidson diagonalization with overlap
     ethr =  6.84E-10,  avg # of iterations =  2.4

     total cpu time spent up to now is     5445.7 secs

     total energy              =    -441.21410888 Ry
     Harris-Foulkes estimate   =    -441.21410890 Ry
     estimated scf accuracy    <       0.00000003 Ry

     iteration # 10     ecut=    25.00 Ry     beta= 0.70
     Davidson diagonalization with overlap
     ethr =  5.55E-11,  avg # of iterations =  2.1

     total cpu time spent up to now is     5575.3 secs

     total energy              =    -441.21410889 Ry
     Harris-Foulkes estimate   =    -441.21410889 Ry
     estimated scf accuracy    <          6.7E-10 Ry

     iteration # 11     ecut=    25.00 Ry     beta= 0.70
     Davidson diagonalization with overlap
     ethr =  1.30E-12,  avg # of iterations =  2.2

     total cpu time spent up to now is     5711.2 secs

     total energy              =    -441.21410889 Ry
     Harris-Foulkes estimate   =    -441.21410889 Ry
     estimated scf accuracy    <          4.6E-11 Ry

     iteration # 12     ecut=    25.00 Ry     beta= 0.70
     Davidson diagonalization with overlap
     ethr =  1.00E-13,  avg # of iterations =  2.0

     total cpu time spent up to now is     5841.1 secs

     total energy              =    -441.21410889 Ry
     Harris-Foulkes estimate   =    -441.21410889 Ry
     estimated scf accuracy    <          3.5E-12 Ry

     iteration # 13     ecut=    25.00 Ry     beta= 0.70
     Davidson diagonalization with overlap
     ethr =  1.00E-13,  avg # of iterations =  1.0

     total cpu time spent up to now is     5938.9 secs

     End of self-consistent calculation

     Number of k-points >= 100: set verbosity='high' to print the bands.

     highest occupied level (ev):    31.4549

!    total energy              =    -441.21410889 Ry
     Harris-Foulkes estimate   =    -441.21410889 Ry
     estimated scf accuracy    <          4.9E-14 Ry

     The total energy is the sum of the following terms:

     one-electron contribution =      29.81504062 Ry
     hartree contribution      =      61.37540115 Ry
     xc contribution           =    -127.50547979 Ry
     ewald contribution        =    -404.89907087 Ry

     convergence has been achieved in  13 iterations

     Forces acting on atoms (cartesian axes, Ry/au):

     atom    1 type  1   force =     0.05535208    0.05535208    0.00000000
     atom    2 type  1   force =     0.00845506    0.00845506    0.00000000
     atom    3 type  2   force =     0.65180408   -0.64768282    0.00000000
     atom    4 type  2   force =    -0.64768282    0.65180408    0.00000000
     atom    5 type  2   force =     0.61611304    0.61611304    0.00000000
     atom    6 type  2   force =    -0.68404144   -0.68404144    0.00000000

     Total force =     1.841187     Total SCF correction =     0.000001


     Computing stress (Cartesian axis) and pressure

          total   stress  (Ry/bohr**3)                   (kbar)     P= 6176.74
   0.05471122   0.00000383   0.00000000       8048.30      0.56      0.00
   0.00000383   0.05471122   0.00000000          0.56   8048.30      0.00
   0.00000000  -0.00000000   0.01654341          0.00     -0.00   2433.62


     number of scf cycles    =   3
     number of bfgs steps    =   2

     enthalpy old            =    -439.4771510468 Ry
     enthalpy new            =    -441.2141088882 Ry

     CASE: enthalpy_new < enthalpy_old

     new trust radius        =       0.6980338380 bohr
     new conv_thr            =            1.0E-12 Ry

     new unit-cell volume =    232.06925 a.u.^3 (    34.38911 Ang^3 )
     density =     14.55440 g/cm^3

CELL_PARAMETERS (alat=  9.11000000)
   0.853603074   0.000000000   0.000000000
   0.000000000   0.853603074   0.000000000
   0.000000000   0.000000000   0.421260300

ATOMIC_POSITIONS (crystal)
Sn       0.001752384   0.001752384   0.000000000
Sn       0.499827129   0.499827129   0.500000000
O        0.823463699   0.175502564   0.500000000
O        0.175502564   0.823463699   0.500000000
O        0.322721855   0.322721855   0.000000000
O        0.674732368   0.674732368   0.000000000



     Writing output data file SnO2.save
     NEW-OLD atomic charge density approx. for the potential

     Check: negative/imaginary core charge=   -0.000777    0.000000
     extrapolated charge   55.22845, renormalised to   52.00000

     total cpu time spent up to now is     5976.1 secs

     Self-consistent Calculation

     iteration #  1     ecut=    25.00 Ry     beta= 0.70
     Davidson diagonalization with overlap
     ethr =  1.00E-06,  avg # of iterations =  8.4

     total cpu time spent up to now is     6344.3 secs

     total energy              =    -437.42870952 Ry
     Harris-Foulkes estimate   =    -432.91983467 Ry
     estimated scf accuracy    <       0.46551562 Ry

     iteration #  2     ecut=    25.00 Ry     beta= 0.70
     Davidson diagonalization with overlap
     ethr =  8.95E-04,  avg # of iterations =  2.8

     total cpu time spent up to now is     6484.3 secs

     total energy              =    -437.68659643 Ry
     Harris-Foulkes estimate   =    -437.81778446 Ry
     estimated scf accuracy    <       0.24090685 Ry

     iteration #  3     ecut=    25.00 Ry     beta= 0.70
     Davidson diagonalization with overlap
     ethr =  4.63E-04,  avg # of iterations =  2.0

     total cpu time spent up to now is     6599.3 secs

     total energy              =    -437.70826323 Ry
     Harris-Foulkes estimate   =    -437.71505441 Ry
     estimated scf accuracy    <       0.01425174 Ry

     iteration #  4     ecut=    25.00 Ry     beta= 0.70
     Davidson diagonalization with overlap
     ethr =  2.74E-05,  avg # of iterations =  2.1

     total cpu time spent up to now is     6726.4 secs

     total energy              =    -437.71070655 Ry
     Harris-Foulkes estimate   =    -437.71071285 Ry
     estimated scf accuracy    <       0.00022768 Ry

     iteration #  5     ecut=    25.00 Ry     beta= 0.70
     Davidson diagonalization with overlap
     ethr =  4.38E-07,  avg # of iterations =  2.3

     total cpu time spent up to now is     6850.9 secs

     total energy              =    -437.71073899 Ry
     Harris-Foulkes estimate   =    -437.71076356 Ry
     estimated scf accuracy    <       0.00004224 Ry

     iteration #  6     ecut=    25.00 Ry     beta= 0.70
     Davidson diagonalization with overlap
     ethr =  8.12E-08,  avg # of iterations =  2.0

     total cpu time spent up to now is     6972.6 secs

     total energy              =    -437.71074645 Ry
     Harris-Foulkes estimate   =    -437.71074705 Ry
     estimated scf accuracy    <       0.00000103 Ry

     iteration #  7     ecut=    25.00 Ry     beta= 0.70
     Davidson diagonalization with overlap
     ethr =  1.99E-09,  avg # of iterations =  2.1

     total cpu time spent up to now is     7103.6 secs

     total energy              =    -437.71074674 Ry
     Harris-Foulkes estimate   =    -437.71074676 Ry
     estimated scf accuracy    <       0.00000005 Ry

     iteration #  8     ecut=    25.00 Ry     beta= 0.70
     Davidson diagonalization with overlap
     ethr =  9.65E-11,  avg # of iterations =  2.1

     total cpu time spent up to now is     7233.5 secs

     total energy              =    -437.71074675 Ry
     Harris-Foulkes estimate   =    -437.71074676 Ry
     estimated scf accuracy    <       0.00000001 Ry

     iteration #  9     ecut=    25.00 Ry     beta= 0.70
     Davidson diagonalization with overlap
     ethr =  1.98E-11,  avg # of iterations =  2.1

     total cpu time spent up to now is     7352.2 secs

     total energy              =    -437.71074675 Ry
     Harris-Foulkes estimate   =    -437.71074675 Ry
     estimated scf accuracy    <          1.0E-09 Ry

     iteration # 10     ecut=    25.00 Ry     beta= 0.70
     Davidson diagonalization with overlap
     ethr =  1.98E-12,  avg # of iterations =  2.0

     total cpu time spent up to now is     7477.5 secs

     total energy              =    -437.71074675 Ry
     Harris-Foulkes estimate   =    -437.71074675 Ry
     estimated scf accuracy    <          4.9E-11 Ry

     iteration # 11     ecut=    25.00 Ry     beta= 0.70
     Davidson diagonalization with overlap
     ethr =  1.00E-13,  avg # of iterations =  2.0

     total cpu time spent up to now is     7606.4 secs

     End of self-consistent calculation

     Number of k-points >= 100: set verbosity='high' to print the bands.

     highest occupied level (ev):    30.1918

!    total energy              =    -437.71074675 Ry
     Harris-Foulkes estimate   =    -437.71074675 Ry
     estimated scf accuracy    <          9.0E-13 Ry

     The total energy is the sum of the following terms:

     one-electron contribution =     -35.25429271 Ry
     hartree contribution      =      88.65774405 Ry
     xc contribution           =    -127.68912690 Ry
     ewald contribution        =    -363.42507120 Ry

     convergence has been achieved in  11 iterations

     Forces acting on atoms (cartesian axes, Ry/au):

     atom    1 type  1   force =     0.02816648    0.02816648    0.00000000
     atom    2 type  1   force =    -0.06575856   -0.06575856    0.00000000
     atom    3 type  2   force =    -1.81813922    1.76593647    0.00000000
     atom    4 type  2   force =     1.76593647   -1.81813922    0.00000000
     atom    5 type  2   force =    -1.74822411   -1.74822411    0.00000000
     atom    6 type  2   force =     1.83801894    1.83801894    0.00000000

     Total force =     5.072254     Total SCF correction =     0.000003


     Computing stress (Cartesian axis) and pressure

          total   stress  (Ry/bohr**3)                   (kbar)     P= 5855.34
  -0.00017456   0.00002593   0.00000000        -25.68      3.81      0.00
   0.00002593  -0.00017456   0.00000000          3.81    -25.68      0.00
   0.00000000   0.00000000   0.11976047          0.00      0.00  17617.37


     number of scf cycles    =   4
     number of bfgs steps    =   3

     enthalpy old            =    -441.2141088882 Ry
     enthalpy new            =    -437.7107467541 Ry

     CASE: enthalpy_new > enthalpy_old

     new trust radius        =       0.2644161450 bohr
     new conv_thr            =            1.0E-12 Ry

     new unit-cell volume =    224.45920 a.u.^3 (    33.26142 Ang^3 )
     density =     15.04785 g/cm^3

CELL_PARAMETERS (alat=  9.11000000)
   0.759078675   0.000000000   0.000000000
   0.000000000   0.759078675   0.000000000
   0.000000000   0.000000000   0.515238971

ATOMIC_POSITIONS (crystal)
Sn      -0.000006221  -0.000006221   0.000000000
Sn       0.499579196   0.499579196   0.500000000
O        0.802767723   0.196068406   0.500000000
O        0.196068406   0.802767723   0.500000000
O        0.303148339   0.303148339   0.000000000
O        0.696442557   0.696442557   0.000000000



     Writing output data file SnO2.save
     NEW-OLD atomic charge density approx. for the potential

     Check: negative/imaginary core charge=   -0.000501    0.000000
     extrapolated charge   50.23710, renormalised to   52.00000

     total cpu time spent up to now is     7642.0 secs

     Self-consistent Calculation

     iteration #  1     ecut=    25.00 Ry     beta= 0.70
     Davidson diagonalization with overlap
     ethr =  1.00E-06,  avg # of iterations =  7.0

     total cpu time spent up to now is     7963.9 secs

     total energy              =    -441.69079973 Ry
     Harris-Foulkes estimate   =    -443.07150229 Ry
     estimated scf accuracy    <       0.24158649 Ry

     iteration #  2     ecut=    25.00 Ry     beta= 0.70
     Davidson diagonalization with overlap
     ethr =  4.65E-04,  avg # of iterations =  2.1

     total cpu time spent up to now is     8094.6 secs

     total energy              =    -441.81274250 Ry
     Harris-Foulkes estimate   =    -441.83921315 Ry
     estimated scf accuracy    <       0.05099628 Ry

     iteration #  3     ecut=    25.00 Ry     beta= 0.70
     Davidson diagonalization with overlap
     ethr =  9.81E-05,  avg # of iterations =  2.0

     total cpu time spent up to now is     8213.2 secs

     total energy              =    -441.81816846 Ry
     Harris-Foulkes estimate   =    -441.81885032 Ry
     estimated scf accuracy    <       0.00237509 Ry

     iteration #  4     ecut=    25.00 Ry     beta= 0.70
     Davidson diagonalization with overlap
     ethr =  4.57E-06,  avg # of iterations =  2.0

     total cpu time spent up to now is     8342.3 secs

     total energy              =    -441.81860413 Ry
     Harris-Foulkes estimate   =    -441.81861147 Ry
     estimated scf accuracy    <       0.00006458 Ry

     iteration #  5     ecut=    25.00 Ry     beta= 0.70
     Davidson diagonalization with overlap
     ethr =  1.24E-07,  avg # of iterations =  2.6

     total cpu time spent up to now is     8476.5 secs

     total energy              =    -441.81861351 Ry
     Harris-Foulkes estimate   =    -441.81862562 Ry
     estimated scf accuracy    <       0.00002351 Ry

     iteration #  6     ecut=    25.00 Ry     beta= 0.70
     Davidson diagonalization with overlap
     ethr =  4.52E-08,  avg # of iterations =  2.0

     total cpu time spent up to now is     8598.6 secs

     total energy              =    -441.81861840 Ry
     Harris-Foulkes estimate   =    -441.81861861 Ry
     estimated scf accuracy    <       0.00000053 Ry

     iteration #  7     ecut=    25.00 Ry     beta= 0.70
     Davidson diagonalization with overlap
     ethr =  1.02E-09,  avg # of iterations =  2.0

     total cpu time spent up to now is     8729.1 secs

     total energy              =    -441.81861853 Ry
     Harris-Foulkes estimate   =    -441.81861855 Ry
     estimated scf accuracy    <       0.00000003 Ry

     iteration #  8     ecut=    25.00 Ry     beta= 0.70
     Davidson diagonalization with overlap
     ethr =  5.09E-11,  avg # of iterations =  2.0

     total cpu time spent up to now is     8858.4 secs

     total energy              =    -441.81861854 Ry
     Harris-Foulkes estimate   =    -441.81861854 Ry
     estimated scf accuracy    <          2.5E-09 Ry

     iteration #  9     ecut=    25.00 Ry     beta= 0.70
     Davidson diagonalization with overlap
     ethr =  4.90E-12,  avg # of iterations =  2.4

     total cpu time spent up to now is     8976.9 secs

     total energy              =    -441.81861854 Ry
     Harris-Foulkes estimate   =    -441.81861854 Ry
     estimated scf accuracy    <          3.0E-10 Ry

     iteration # 10     ecut=    25.00 Ry     beta= 0.70
     Davidson diagonalization with overlap
     ethr =  5.86E-13,  avg # of iterations =  2.0

     total cpu time spent up to now is     9098.1 secs

     total energy              =    -441.81861854 Ry
     Harris-Foulkes estimate   =    -441.81861854 Ry
     estimated scf accuracy    <          9.7E-12 Ry

     iteration # 11     ecut=    25.00 Ry     beta= 0.70
     Davidson diagonalization with overlap
     ethr =  1.00E-13,  avg # of iterations =  1.6

     total cpu time spent up to now is     9191.4 secs

     End of self-consistent calculation

     Number of k-points >= 100: set verbosity='high' to print the bands.

     highest occupied level (ev):    29.6851

!    total energy              =    -441.81861854 Ry
     Harris-Foulkes estimate   =    -441.81861854 Ry
     estimated scf accuracy    <          3.0E-13 Ry

     The total energy is the sum of the following terms:

     one-electron contribution =      17.69257176 Ry
     hartree contribution      =      65.48341094 Ry
     xc contribution           =    -127.32530306 Ry
     ewald contribution        =    -397.66929818 Ry

     convergence has been achieved in  11 iterations

     Forces acting on atoms (cartesian axes, Ry/au):

     atom    1 type  1   force =    -0.00410822   -0.00410822    0.00000000
     atom    2 type  1   force =     0.00613594    0.00613594    0.00000000
     atom    3 type  2   force =    -0.08908312    0.08622726    0.00000000
     atom    4 type  2   force =     0.08622726   -0.08908312    0.00000000
     atom    5 type  2   force =    -0.08736546   -0.08736546    0.00000000
     atom    6 type  2   force =     0.08819360    0.08819360    0.00000000

     Total force =     0.248340     Total SCF correction =     0.000002


     Computing stress (Cartesian axis) and pressure

          total   stress  (Ry/bohr**3)                   (kbar)     P= 5228.58
   0.03205474  -0.00000038   0.00000000       4715.41     -0.06      0.00
  -0.00000038   0.03205474  -0.00000000         -0.06   4715.41     -0.00
   0.00000000   0.00000000   0.04251996          0.00      0.00   6254.90


     number of scf cycles    =   5
     number of bfgs steps    =   3

     enthalpy old            =    -441.2141088882 Ry
     enthalpy new            =    -441.8186185408 Ry

     CASE: enthalpy_new < enthalpy_old

     new trust radius        =       0.4945095464 bohr
     new conv_thr            =            1.0E-12 Ry

     new unit-cell volume =    308.74127 a.u.^3 (    45.75073 Ang^3 )
     density =     10.94000 g/cm^3

CELL_PARAMETERS (alat=  9.11000000)
   0.824794852   0.000000000   0.000000000
   0.000000000   0.824794852   0.000000000
   0.000000000   0.000000000   0.600271420

ATOMIC_POSITIONS (crystal)
Sn       0.000317351   0.000317351   0.000000000
Sn       0.500332217   0.500332217   0.500000000
O        0.804747002   0.193981631   0.500000000
O        0.193981631   0.804747002   0.500000000
O        0.304689925   0.304689925   0.000000000
O        0.693931874   0.693931874   0.000000000



     Writing output data file SnO2.save
     NEW-OLD atomic charge density approx. for the potential

     Check: negative/imaginary core charge=   -0.001121    0.000000
     Check: negative starting charge=   -0.000715

     negative rho (up, down):  9.648E-04 0.000E+00
     extrapolated charge   66.19443, renormalised to   52.00000

     total cpu time spent up to now is     9226.4 secs

     Self-consistent Calculation

     iteration #  1     ecut=    25.00 Ry     beta= 0.70
     Davidson diagonalization with overlap
     c_bands:  1 eigenvalues not converged
     c_bands:  1 eigenvalues not converged
     c_bands:  1 eigenvalues not converged
     c_bands:  1 eigenvalues not converged
     c_bands:  1 eigenvalues not converged
     c_bands:  1 eigenvalues not converged
     c_bands:  1 eigenvalues not converged
     c_bands:  1 eigenvalues not converged
     c_bands:  1 eigenvalues not converged
     c_bands:  1 eigenvalues not converged
     c_bands:  1 eigenvalues not converged
     c_bands:  1 eigenvalues not converged
     c_bands:  1 eigenvalues not converged
     c_bands:  1 eigenvalues not converged
     c_bands:  1 eigenvalues not converged
     c_bands:  1 eigenvalues not converged
     c_bands:  1 eigenvalues not converged
     c_bands:  1 eigenvalues not converged
     c_bands:  1 eigenvalues not converged
     c_bands:  1 eigenvalues not converged
     c_bands:  1 eigenvalues not converged
     c_bands:  1 eigenvalues not converged
     c_bands:  1 eigenvalues not converged
     ethr =  1.00E-06,  avg # of iterations = 13.0

     negative rho (up, down):  2.054E-04 0.000E+00

     total cpu time spent up to now is     9593.8 secs

     total energy              =    -429.63974758 Ry
     Harris-Foulkes estimate   =    -426.38966783 Ry
     estimated scf accuracy    <       6.63728049 Ry

     iteration #  2     ecut=    25.00 Ry     beta= 0.70
     Davidson diagonalization with overlap
     ethr =  1.00E-02,  avg # of iterations =  4.5

     negative rho (up, down):  9.656E-05 0.000E+00

     total cpu time spent up to now is     9786.9 secs

     total energy              =    -441.89760979 Ry
     Harris-Foulkes estimate   =    -445.59671089 Ry
     estimated scf accuracy    <       8.47765952 Ry

     iteration #  3     ecut=    25.00 Ry     beta= 0.70
     Davidson diagonalization with overlap
     ethr =  1.00E-02,  avg # of iterations =  2.0

     negative rho (up, down):  3.898E-05 0.000E+00

     total cpu time spent up to now is     9890.0 secs

     total energy              =    -441.66492624 Ry
     Harris-Foulkes estimate   =    -442.31851429 Ry
     estimated scf accuracy    <       1.96803118 Ry

     iteration #  4     ecut=    25.00 Ry     beta= 0.70
     Davidson diagonalization with overlap
     ethr =  3.78E-03,  avg # of iterations =  1.0

     total cpu time spent up to now is     9979.4 secs

     total energy              =    -441.38470023 Ry
     Harris-Foulkes estimate   =    -441.72153446 Ry
     estimated scf accuracy    <       0.80075120 Ry

     iteration #  5     ecut=    25.00 Ry     beta= 0.70
     Davidson diagonalization with overlap
     ethr =  1.54E-03,  avg # of iterations =  1.6

     total cpu time spent up to now is    10073.2 secs

     total energy              =    -441.31545222 Ry
     Harris-Foulkes estimate   =    -441.42744172 Ry
     estimated scf accuracy    <       0.17817666 Ry

     iteration #  6     ecut=    25.00 Ry     beta= 0.70
     Davidson diagonalization with overlap
     ethr =  3.43E-04,  avg # of iterations =  2.0

     total cpu time spent up to now is    10203.9 secs

     total energy              =    -441.35235999 Ry
     Harris-Foulkes estimate   =    -441.35279649 Ry
     estimated scf accuracy    <       0.00075423 Ry

     iteration #  7     ecut=    25.00 Ry     beta= 0.70
     Davidson diagonalization with overlap
     ethr =  1.45E-06,  avg # of iterations =  2.5

     total cpu time spent up to now is    10339.9 secs

     total energy              =    -441.35269906 Ry
     Harris-Foulkes estimate   =    -441.35277060 Ry
     estimated scf accuracy    <       0.00026078 Ry

     iteration #  8     ecut=    25.00 Ry     beta= 0.70
     Davidson diagonalization with overlap
     ethr =  5.02E-07,  avg # of iterations =  1.0

     total cpu time spent up to now is    10429.6 secs

     total energy              =    -441.35265360 Ry
     Harris-Foulkes estimate   =    -441.35271083 Ry
     estimated scf accuracy    <       0.00010978 Ry

     iteration #  9     ecut=    25.00 Ry     beta= 0.70
     Davidson diagonalization with overlap
     ethr =  2.11E-07,  avg # of iterations =  2.0

     total cpu time spent up to now is    10541.3 secs

     total energy              =    -441.35266279 Ry
     Harris-Foulkes estimate   =    -441.35266546 Ry
     estimated scf accuracy    <       0.00000581 Ry

     iteration # 10     ecut=    25.00 Ry     beta= 0.70
     Davidson diagonalization with overlap
     ethr =  1.12E-08,  avg # of iterations =  2.0

     total cpu time spent up to now is    10660.4 secs

     total energy              =    -441.35266365 Ry
     Harris-Foulkes estimate   =    -441.35266388 Ry
     estimated scf accuracy    <       0.00000043 Ry

     iteration # 11     ecut=    25.00 Ry     beta= 0.70
     Davidson diagonalization with overlap
     ethr =  8.27E-10,  avg # of iterations =  2.0

     total cpu time spent up to now is    10789.6 secs

     total energy              =    -441.35266370 Ry
     Harris-Foulkes estimate   =    -441.35266372 Ry
     estimated scf accuracy    <       0.00000005 Ry

     iteration # 12     ecut=    25.00 Ry     beta= 0.70
     Davidson diagonalization with overlap
     ethr =  8.77E-11,  avg # of iterations =  2.0

     total cpu time spent up to now is    10904.0 secs

     total energy              =    -441.35266371 Ry
     Harris-Foulkes estimate   =    -441.35266371 Ry
     estimated scf accuracy    <          3.7E-09 Ry

     iteration # 13     ecut=    25.00 Ry     beta= 0.70
     Davidson diagonalization with overlap
     ethr =  7.07E-12,  avg # of iterations =  2.0

     total cpu time spent up to now is    11017.2 secs

     total energy              =    -441.35266371 Ry
     Harris-Foulkes estimate   =    -441.35266371 Ry
     estimated scf accuracy    <          4.0E-10 Ry

     iteration # 14     ecut=    25.00 Ry     beta= 0.70
     Davidson diagonalization with overlap
     ethr =  7.77E-13,  avg # of iterations =  2.0

     total cpu time spent up to now is    11137.9 secs

     total energy              =    -441.35266371 Ry
     Harris-Foulkes estimate   =    -441.35266371 Ry
     estimated scf accuracy    <          3.4E-11 Ry

     iteration # 15     ecut=    25.00 Ry     beta= 0.70
     Davidson diagonalization with overlap
     ethr =  1.00E-13,  avg # of iterations =  2.0

     total cpu time spent up to now is    11247.9 secs

     total energy              =    -441.35266371 Ry
     Harris-Foulkes estimate   =    -441.35266371 Ry
     estimated scf accuracy    <          1.2E-12 Ry

     iteration # 16     ecut=    25.00 Ry     beta= 0.70
     Davidson diagonalization with overlap
     ethr =  1.00E-13,  avg # of iterations =  1.0

     total cpu time spent up to now is    11337.2 secs

     End of self-consistent calculation

     Number of k-points >= 100: set verbosity='high' to print the bands.

     highest occupied level (ev):    19.7412

!    total energy              =    -441.35266371 Ry
     Harris-Foulkes estimate   =    -441.35266371 Ry
     estimated scf accuracy    <          8.3E-14 Ry

     The total energy is the sum of the following terms:

     one-electron contribution =     -31.41893454 Ry
     hartree contribution      =      72.98342281 Ry
     xc contribution           =    -123.32032463 Ry
     ewald contribution        =    -359.59682735 Ry

     convergence has been achieved in  16 iterations

     Forces acting on atoms (cartesian axes, Ry/au):

     atom    1 type  1   force =    -0.01662377   -0.01662377    0.00000000
     atom    2 type  1   force =    -0.00368074   -0.00368074    0.00000000
     atom    3 type  2   force =     0.04851322   -0.05300423    0.00000000
     atom    4 type  2   force =    -0.05300423    0.04851322    0.00000000
     atom    5 type  2   force =     0.06337516    0.06337516    0.00000000
     atom    6 type  2   force =    -0.03857964   -0.03857964    0.00000000

     Total force =     0.148038     Total SCF correction =     0.000000


     Computing stress (Cartesian axis) and pressure

          total   stress  (Ry/bohr**3)                   (kbar)     P=-4901.36
  -0.02712049   0.00000280   0.00000000      -3989.56      0.41      0.00
   0.00000280  -0.02712049   0.00000000          0.41  -3989.56      0.00
   0.00000000  -0.00000000  -0.04571533          0.00     -0.00  -6724.96


     number of scf cycles    =   6
     number of bfgs steps    =   4

     enthalpy old            =    -441.8186185408 Ry
     enthalpy new            =    -441.3526637088 Ry

     CASE: enthalpy_new > enthalpy_old

     new trust radius        =       0.2135140408 bohr
     new conv_thr            =            1.0E-12 Ry

     new unit-cell volume =    258.52795 a.u.^3 (    38.30989 Ang^3 )
     density =     13.06485 g/cm^3

CELL_PARAMETERS (alat=  9.11000000)
   0.787264735   0.000000000   0.000000000
   0.000000000   0.787264735   0.000000000
   0.000000000   0.000000000   0.551709896

ATOMIC_POSITIONS (crystal)
Sn       0.000132561   0.000132561   0.000000000
Sn       0.499902171   0.499902171   0.500000000
O        0.803616648   0.195173376   0.500000000
O        0.195173376   0.803616648   0.500000000
O        0.303809534   0.303809534   0.000000000
O        0.695365710   0.695365710   0.000000000



     Writing output data file SnO2.save
     Check: negative starting charge=   -0.000715
     NEW-OLD atomic charge density approx. for the potential

     Check: negative/imaginary core charge=   -0.000750    0.000000
     extrapolated charge   41.90076, renormalised to   52.00000

     total cpu time spent up to now is    11372.8 secs

     Self-consistent Calculation

     iteration #  1     ecut=    25.00 Ry     beta= 0.70
     Davidson diagonalization with overlap
     ethr =  1.00E-06,  avg # of iterations =  6.0

     total cpu time spent up to now is    11644.1 secs

     total energy              =    -439.59322449 Ry
     Harris-Foulkes estimate   =    -450.82949325 Ry
     estimated scf accuracy    <       2.63823266 Ry

     iteration #  2     ecut=    25.00 Ry     beta= 0.70
     Davidson diagonalization with overlap
     ethr =  5.07E-03,  avg # of iterations =  3.0

     total cpu time spent up to now is    11789.8 secs

     total energy              =    -442.29258273 Ry
     Harris-Foulkes estimate   =    -443.04194510 Ry
     estimated scf accuracy    <       1.62804751 Ry

     iteration #  3     ecut=    25.00 Ry     beta= 0.70
     Davidson diagonalization with overlap
     ethr =  3.13E-03,  avg # of iterations =  2.0

     total cpu time spent up to now is    11899.2 secs

     total energy              =    -442.36370093 Ry
     Harris-Foulkes estimate   =    -442.44095619 Ry
     estimated scf accuracy    <       0.15862904 Ry

     iteration #  4     ecut=    25.00 Ry     beta= 0.70
     Davidson diagonalization with overlap
     ethr =  3.05E-04,  avg # of iterations =  2.0

     total cpu time spent up to now is    12010.3 secs

     total energy              =    -442.37253780 Ry
     Harris-Foulkes estimate   =    -442.38167128 Ry
     estimated scf accuracy    <       0.01436986 Ry

     iteration #  5     ecut=    25.00 Ry     beta= 0.70
     Davidson diagonalization with overlap
     ethr =  2.76E-05,  avg # of iterations =  2.2

     total cpu time spent up to now is    12143.5 secs

     total energy              =    -442.37684546 Ry
     Harris-Foulkes estimate   =    -442.37768801 Ry
     estimated scf accuracy    <       0.00162137 Ry

     iteration #  6     ecut=    25.00 Ry     beta= 0.70
     Davidson diagonalization with overlap
     ethr =  3.12E-06,  avg # of iterations =  2.0

     total cpu time spent up to now is    12259.2 secs

     total energy              =    -442.37703298 Ry
     Harris-Foulkes estimate   =    -442.37706356 Ry
     estimated scf accuracy    <       0.00006099 Ry

     iteration #  7     ecut=    25.00 Ry     beta= 0.70
     Davidson diagonalization with overlap
     ethr =  1.17E-07,  avg # of iterations =  2.0

     total cpu time spent up to now is    12385.0 secs

     total energy              =    -442.37704091 Ry
     Harris-Foulkes estimate   =    -442.37704226 Ry
     estimated scf accuracy    <       0.00000331 Ry

     iteration #  8     ecut=    25.00 Ry     beta= 0.70
     Davidson diagonalization with overlap
     ethr =  6.36E-09,  avg # of iterations =  2.0

     total cpu time spent up to now is    12497.0 secs

     total energy              =    -442.37704094 Ry
     Harris-Foulkes estimate   =    -442.37704123 Ry
     estimated scf accuracy    <       0.00000051 Ry

     iteration #  9     ecut=    25.00 Ry     beta= 0.70
     Davidson diagonalization with overlap
     ethr =  9.74E-10,  avg # of iterations =  2.0

     total cpu time spent up to now is    12623.8 secs

     total energy              =    -442.37704104 Ry
     Harris-Foulkes estimate   =    -442.37704104 Ry
     estimated scf accuracy    <          2.2E-09 Ry

     iteration # 10     ecut=    25.00 Ry     beta= 0.70
     Davidson diagonalization with overlap
     ethr =  4.21E-12,  avg # of iterations =  3.0

     total cpu time spent up to now is    12769.0 secs

     total energy              =    -442.37704104 Ry
     Harris-Foulkes estimate   =    -442.37704104 Ry
     estimated scf accuracy    <          4.0E-10 Ry

     iteration # 11     ecut=    25.00 Ry     beta= 0.70
     Davidson diagonalization with overlap
     ethr =  7.63E-13,  avg # of iterations =  2.0

     total cpu time spent up to now is    12891.9 secs

     total energy              =    -442.37704104 Ry
     Harris-Foulkes estimate   =    -442.37704104 Ry
     estimated scf accuracy    <          3.3E-12 Ry

     iteration # 12     ecut=    25.00 Ry     beta= 0.70
     Davidson diagonalization with overlap
     ethr =  1.00E-13,  avg # of iterations =  1.0

     total cpu time spent up to now is    12981.3 secs

     End of self-consistent calculation

     Number of k-points >= 100: set verbosity='high' to print the bands.

     highest occupied level (ev):    24.7812

!    total energy              =    -442.37704104 Ry
     Harris-Foulkes estimate   =    -442.37704104 Ry
     estimated scf accuracy    <          4.3E-13 Ry

     The total energy is the sum of the following terms:

     one-electron contribution =      -5.40954344 Ry
     hartree contribution      =      68.98689788 Ry
     xc contribution           =    -125.57401397 Ry
     ewald contribution        =    -380.38038150 Ry

     convergence has been achieved in  12 iterations

     Forces acting on atoms (cartesian axes, Ry/au):

     atom    1 type  1   force =    -0.01228184   -0.01228184    0.00000000
     atom    2 type  1   force =    -0.00129127   -0.00129127    0.00000000
     atom    3 type  2   force =     0.00127894   -0.00540622    0.00000000
     atom    4 type  2   force =    -0.00540622    0.00127894    0.00000000
     atom    5 type  2   force =     0.01224036    0.01224036    0.00000000
     atom    6 type  2   force =     0.00546001    0.00546001    0.00000000

     Total force =     0.026945     Total SCF correction =     0.000002


     Computing stress (Cartesian axis) and pressure

          total   stress  (Ry/bohr**3)                   (kbar)     P= -140.74
   0.00036346   0.00000110   0.00000000         53.47      0.16      0.00
   0.00000110   0.00036346  -0.00000000          0.16     53.47     -0.00
   0.00000000   0.00000000  -0.00359713          0.00      0.00   -529.16


     number of scf cycles    =   7
     number of bfgs steps    =   4

     enthalpy old            =    -441.8186185408 Ry
     enthalpy new            =    -442.3770410411 Ry

     CASE: enthalpy_new < enthalpy_old

     new trust radius        =       0.0496198519 bohr
     new conv_thr            =            1.0E-12 Ry

     new unit-cell volume =    258.12906 a.u.^3 (    38.25078 Ang^3 )
     density =     13.08504 g/cm^3

CELL_PARAMETERS (alat=  9.11000000)
   0.792797444   0.000000000   0.000000000
   0.000000000   0.792797444   0.000000000
   0.000000000   0.000000000   0.543196898

ATOMIC_POSITIONS (crystal)
Sn      -0.001121705  -0.001121705   0.000000000
Sn       0.499804281   0.499804281   0.500000000
O        0.800615209   0.197797560   0.500000000
O        0.197797560   0.800615209   0.500000000
O        0.301863244   0.301863244   0.000000000
O        0.699041412   0.699041412   0.000000000



     Writing output data file SnO2.save
     NEW-OLD atomic charge density approx. for the potential

     Check: negative/imaginary core charge=   -0.000740    0.000000
     extrapolated charge   51.91965, renormalised to   52.00000

     total cpu time spent up to now is    13016.1 secs

     Self-consistent Calculation

     iteration #  1     ecut=    25.00 Ry     beta= 0.70
     Davidson diagonalization with overlap
     ethr =  1.00E-06,  avg # of iterations =  5.0

     total cpu time spent up to now is    13241.4 secs

     total energy              =    -442.38177989 Ry
     Harris-Foulkes estimate   =    -442.45272717 Ry
     estimated scf accuracy    <       0.00157013 Ry

     iteration #  2     ecut=    25.00 Ry     beta= 0.70
     Davidson diagonalization with overlap
     ethr =  3.02E-06,  avg # of iterations =  2.0

     total cpu time spent up to now is    13372.4 secs

     total energy              =    -442.38217681 Ry
     Harris-Foulkes estimate   =    -442.38225326 Ry
     estimated scf accuracy    <       0.00018916 Ry

     iteration #  3     ecut=    25.00 Ry     beta= 0.70
     Davidson diagonalization with overlap
     ethr =  3.64E-07,  avg # of iterations =  2.0

     total cpu time spent up to now is    13492.3 secs

     total energy              =    -442.38220954 Ry
     Harris-Foulkes estimate   =    -442.38220889 Ry
     estimated scf accuracy    <       0.00000984 Ry

     iteration #  4     ecut=    25.00 Ry     beta= 0.70
     Davidson diagonalization with overlap
     ethr =  1.89E-08,  avg # of iterations =  2.0

     total cpu time spent up to now is    13619.7 secs

     total energy              =    -442.38221121 Ry
     Harris-Foulkes estimate   =    -442.38221193 Ry
     estimated scf accuracy    <       0.00000159 Ry

     iteration #  5     ecut=    25.00 Ry     beta= 0.70
     Davidson diagonalization with overlap
     ethr =  3.06E-09,  avg # of iterations =  2.3

     total cpu time spent up to now is    13749.1 secs

     total energy              =    -442.38221161 Ry
     Harris-Foulkes estimate   =    -442.38221171 Ry
     estimated scf accuracy    <       0.00000022 Ry

     iteration #  6     ecut=    25.00 Ry     beta= 0.70
     Davidson diagonalization with overlap
     ethr =  4.32E-10,  avg # of iterations =  2.1

     total cpu time spent up to now is    13874.9 secs

     total energy              =    -442.38221167 Ry
     Harris-Foulkes estimate   =    -442.38221167 Ry
     estimated scf accuracy    <       0.00000001 Ry

     iteration #  7     ecut=    25.00 Ry     beta= 0.70
     Davidson diagonalization with overlap
     ethr =  2.55E-11,  avg # of iterations =  2.0

     total cpu time spent up to now is    13994.6 secs

     total energy              =    -442.38221167 Ry
     Harris-Foulkes estimate   =    -442.38221167 Ry
     estimated scf accuracy    <          1.3E-10 Ry

     iteration #  8     ecut=    25.00 Ry     beta= 0.70
     Davidson diagonalization with overlap
     ethr =  2.41E-13,  avg # of iterations =  2.4

     total cpu time spent up to now is    14129.7 secs

     total energy              =    -442.38221167 Ry
     Harris-Foulkes estimate   =    -442.38221167 Ry
     estimated scf accuracy    <          9.8E-12 Ry

     iteration #  9     ecut=    25.00 Ry     beta= 0.70
     Davidson diagonalization with overlap
     ethr =  1.00E-13,  avg # of iterations =  1.9

     total cpu time spent up to now is    14226.5 secs

     End of self-consistent calculation

     Number of k-points >= 100: set verbosity='high' to print the bands.

     highest occupied level (ev):    24.7248

!    total energy              =    -442.38221167 Ry
     Harris-Foulkes estimate   =    -442.38221167 Ry
     estimated scf accuracy    <          9.8E-13 Ry

     The total energy is the sum of the following terms:

     one-electron contribution =      -6.06599709 Ry
     hartree contribution      =      69.34904248 Ry
     xc contribution           =    -125.62062865 Ry
     ewald contribution        =    -380.04462841 Ry

     convergence has been achieved in   9 iterations

     Forces acting on atoms (cartesian axes, Ry/au):

     atom    1 type  1   force =     0.04491961    0.04491961    0.00000000
     atom    2 type  1   force =     0.00848158    0.00848158    0.00000000
     atom    3 type  2   force =     0.01115447   -0.00585490    0.00000000
     atom    4 type  2   force =    -0.00585490    0.01115447    0.00000000
     atom    5 type  2   force =    -0.02036340   -0.02036340    0.00000000
     atom    6 type  2   force =    -0.03833735   -0.03833735    0.00000000

     Total force =     0.090916     Total SCF correction =     0.000003


     Computing stress (Cartesian axis) and pressure

          total   stress  (Ry/bohr**3)                   (kbar)     P=  -26.43
  -0.00037660   0.00000678   0.00000000        -55.40      1.00      0.00
   0.00000678  -0.00037660   0.00000000          1.00    -55.40      0.00
   0.00000000   0.00000000   0.00021428          0.00      0.00     31.52


     number of scf cycles    =   8
     number of bfgs steps    =   5

     enthalpy old            =    -442.3770410411 Ry
     enthalpy new            =    -442.3822116695 Ry

     CASE: enthalpy_new < enthalpy_old

     new trust radius        =       0.0280998939 bohr
     new conv_thr            =            1.0E-12 Ry

     new unit-cell volume =    257.74835 a.u.^3 (    38.19436 Ang^3 )
     density =     13.10437 g/cm^3

CELL_PARAMETERS (alat=  9.11000000)
   0.792047092   0.000000000   0.000000000
   0.000000000   0.792047092   0.000000000
   0.000000000   0.000000000   0.543423932

ATOMIC_POSITIONS (crystal)
Sn       0.001629412   0.001629412   0.000000000
Sn       0.500341288   0.500341288   0.500000000
O        0.801106758   0.197594706   0.500000000
O        0.197594706   0.801106758   0.500000000
O        0.300453921   0.300453921   0.000000000
O        0.696873916   0.696873916   0.000000000



     Writing output data file SnO2.save
     NEW-OLD atomic charge density approx. for the potential

     Check: negative/imaginary core charge=   -0.000737    0.000000
     extrapolated charge   51.92320, renormalised to   52.00000

     total cpu time spent up to now is    14262.2 secs

     Self-consistent Calculation

     iteration #  1     ecut=    25.00 Ry     beta= 0.70
     Davidson diagonalization with overlap
     ethr =  1.00E-06,  avg # of iterations =  4.2

     total cpu time spent up to now is    14477.6 secs

     total energy              =    -442.38092580 Ry
     Harris-Foulkes estimate   =    -442.44819503 Ry
     estimated scf accuracy    <       0.00065167 Ry

     iteration #  2     ecut=    25.00 Ry     beta= 0.70
     Davidson diagonalization with overlap
     ethr =  1.25E-06,  avg # of iterations =  2.0

     total cpu time spent up to now is    14608.6 secs

     total energy              =    -442.38116516 Ry
     Harris-Foulkes estimate   =    -442.38123874 Ry
     estimated scf accuracy    <       0.00015570 Ry

     iteration #  3     ecut=    25.00 Ry     beta= 0.70
     Davidson diagonalization with overlap
     ethr =  2.99E-07,  avg # of iterations =  2.0

     total cpu time spent up to now is    14725.9 secs

     total energy              =    -442.38118874 Ry
     Harris-Foulkes estimate   =    -442.38118987 Ry
     estimated scf accuracy    <       0.00000868 Ry

     iteration #  4     ecut=    25.00 Ry     beta= 0.70
     Davidson diagonalization with overlap
     ethr =  1.67E-08,  avg # of iterations =  2.0

     total cpu time spent up to now is    14856.8 secs

     total energy              =    -442.38119034 Ry
     Harris-Foulkes estimate   =    -442.38119161 Ry
     estimated scf accuracy    <       0.00000241 Ry

     iteration #  5     ecut=    25.00 Ry     beta= 0.70
     Davidson diagonalization with overlap
     ethr =  4.63E-09,  avg # of iterations =  2.2

     total cpu time spent up to now is    14983.3 secs

     total energy              =    -442.38119094 Ry
     Harris-Foulkes estimate   =    -442.38119101 Ry
     estimated scf accuracy    <       0.00000017 Ry

     iteration #  6     ecut=    25.00 Ry     beta= 0.70
     Davidson diagonalization with overlap
     ethr =  3.26E-10,  avg # of iterations =  2.0

     total cpu time spent up to now is    15107.7 secs

     total energy              =    -442.38119097 Ry
     Harris-Foulkes estimate   =    -442.38119098 Ry
     estimated scf accuracy    <       0.00000001 Ry

     iteration #  7     ecut=    25.00 Ry     beta= 0.70
     Davidson diagonalization with overlap
     ethr =  1.94E-11,  avg # of iterations =  2.0

     total cpu time spent up to now is    15236.1 secs

     total energy              =    -442.38119098 Ry
     Harris-Foulkes estimate   =    -442.38119098 Ry
     estimated scf accuracy    <          2.3E-10 Ry

     iteration #  8     ecut=    25.00 Ry     beta= 0.70
     Davidson diagonalization with overlap
     ethr =  4.39E-13,  avg # of iterations =  2.7

     total cpu time spent up to now is    15367.4 secs

     total energy              =    -442.38119098 Ry
     Harris-Foulkes estimate   =    -442.38119098 Ry
     estimated scf accuracy    <          3.4E-11 Ry

     iteration #  9     ecut=    25.00 Ry     beta= 0.70
     Davidson diagonalization with overlap
     ethr =  1.00E-13,  avg # of iterations =  2.6

     total cpu time spent up to now is    15486.3 secs

     total energy              =    -442.38119098 Ry
     Harris-Foulkes estimate   =    -442.38119098 Ry
     estimated scf accuracy    <          2.9E-12 Ry

     iteration # 10     ecut=    25.00 Ry     beta= 0.70
     Davidson diagonalization with overlap
     ethr =  1.00E-13,  avg # of iterations =  1.0

     total cpu time spent up to now is    15575.7 secs

     End of self-consistent calculation

     Number of k-points >= 100: set verbosity='high' to print the bands.

     highest occupied level (ev):    24.7811

!    total energy              =    -442.38119098 Ry
     Harris-Foulkes estimate   =    -442.38119098 Ry
     estimated scf accuracy    <          1.0E-13 Ry

     The total energy is the sum of the following terms:

     one-electron contribution =      -5.80222977 Ry
     hartree contribution      =      69.30125501 Ry
     xc contribution           =    -125.63793925 Ry
     ewald contribution        =    -380.24227696 Ry

     convergence has been achieved in  10 iterations

     Forces acting on atoms (cartesian axes, Ry/au):

     atom    1 type  1   force =    -0.07594739   -0.07594739    0.00000000
     atom    2 type  1   force =    -0.01493706   -0.01493706    0.00000000
     atom    3 type  2   force =    -0.00432554   -0.01300947    0.00000000
     atom    4 type  2   force =    -0.01300947   -0.00432554    0.00000000
     atom    5 type  2   force =     0.05919956    0.05919956    0.00000000
     atom    6 type  2   force =     0.04901990    0.04901990    0.00000000

     Total force =     0.155477     Total SCF correction =     0.000001


     Computing stress (Cartesian axis) and pressure

          total   stress  (Ry/bohr**3)                   (kbar)     P=   19.74
  -0.00003747   0.00002170   0.00000000         -5.51      3.19      0.00
   0.00002170  -0.00003747   0.00000000          3.19     -5.51      0.00
  -0.00000000   0.00000000   0.00047745         -0.00      0.00     70.23


     number of scf cycles    =   9
     number of bfgs steps    =   6

     enthalpy old            =    -442.3822116695 Ry
     enthalpy new            =    -442.3811909761 Ry

     CASE: enthalpy_new > enthalpy_old

     new trust radius        =       0.0110455363 bohr
     new conv_thr            =            1.0E-12 Ry

     new unit-cell volume =    257.97926 a.u.^3 (    38.22858 Ang^3 )
     density =     13.09264 g/cm^3

CELL_PARAMETERS (alat=  9.11000000)
   0.792502215   0.000000000   0.000000000
   0.000000000   0.792502215   0.000000000
   0.000000000   0.000000000   0.543286226

ATOMIC_POSITIONS (crystal)
Sn      -0.000039269  -0.000039269   0.000000000
Sn       0.500015568   0.500015568   0.500000000
O        0.800808610   0.197717746   0.500000000
O        0.197717746   0.800808610   0.500000000
O        0.301308741   0.301308741   0.000000000
O        0.698188603   0.698188603   0.000000000



     Writing output data file SnO2.save
     NEW-OLD atomic charge density approx. for the potential

     Check: negative/imaginary core charge=   -0.000739    0.000000
     extrapolated charge   52.04654, renormalised to   52.00000

     total cpu time spent up to now is    15610.9 secs

     Self-consistent Calculation

     iteration #  1     ecut=    25.00 Ry     beta= 0.70
     Davidson diagonalization with overlap
     ethr =  1.00E-06,  avg # of iterations =  4.0

     total cpu time spent up to now is    15814.1 secs

     total energy              =    -442.38285141 Ry
     Harris-Foulkes estimate   =    -442.34234438 Ry
     estimated scf accuracy    <       0.00024309 Ry

     iteration #  2     ecut=    25.00 Ry     beta= 0.70
     Davidson diagonalization with overlap
     ethr =  4.67E-07,  avg # of iterations =  2.0

     total cpu time spent up to now is    15944.6 secs

     total energy              =    -442.38294129 Ry
     Harris-Foulkes estimate   =    -442.38296899 Ry
     estimated scf accuracy    <       0.00005826 Ry

     iteration #  3     ecut=    25.00 Ry     beta= 0.70
     Davidson diagonalization with overlap
     ethr =  1.12E-07,  avg # of iterations =  2.0

     total cpu time spent up to now is    16061.6 secs

     total energy              =    -442.38295006 Ry
     Harris-Foulkes estimate   =    -442.38295062 Ry
     estimated scf accuracy    <       0.00000339 Ry

     iteration #  4     ecut=    25.00 Ry     beta= 0.70
     Davidson diagonalization with overlap
     ethr =  6.52E-09,  avg # of iterations =  2.0

     total cpu time spent up to now is    16191.8 secs

     total energy              =    -442.38295071 Ry
     Harris-Foulkes estimate   =    -442.38295124 Ry
     estimated scf accuracy    <       0.00000100 Ry

     iteration #  5     ecut=    25.00 Ry     beta= 0.70
     Davidson diagonalization with overlap
     ethr =  1.92E-09,  avg # of iterations =  2.2

     total cpu time spent up to now is    16316.9 secs

     total energy              =    -442.38295096 Ry
     Harris-Foulkes estimate   =    -442.38295098 Ry
     estimated scf accuracy    <       0.00000006 Ry

     iteration #  6     ecut=    25.00 Ry     beta= 0.70
     Davidson diagonalization with overlap
     ethr =  1.16E-10,  avg # of iterations =  2.0

     total cpu time spent up to now is    16441.3 secs

     total energy              =    -442.38295097 Ry
     Harris-Foulkes estimate   =    -442.38295097 Ry
     estimated scf accuracy    <          3.7E-09 Ry

     iteration #  7     ecut=    25.00 Ry     beta= 0.70
     Davidson diagonalization with overlap
     ethr =  7.10E-12,  avg # of iterations =  2.0

     total cpu time spent up to now is    16568.5 secs

     total energy              =    -442.38295097 Ry
     Harris-Foulkes estimate   =    -442.38295097 Ry
     estimated scf accuracy    <          1.0E-10 Ry

     iteration #  8     ecut=    25.00 Ry     beta= 0.70
     Davidson diagonalization with overlap
     ethr =  1.94E-13,  avg # of iterations =  2.9

     total cpu time spent up to now is    16696.7 secs

     total energy              =    -442.38295097 Ry
     Harris-Foulkes estimate   =    -442.38295097 Ry
     estimated scf accuracy    <          1.6E-11 Ry

     iteration #  9     ecut=    25.00 Ry     beta= 0.70
     Davidson diagonalization with overlap
     ethr =  1.00E-13,  avg # of iterations =  2.0

     total cpu time spent up to now is    16800.4 secs

     End of self-consistent calculation

     Number of k-points >= 100: set verbosity='high' to print the bands.

     highest occupied level (ev):    24.7471

!    total energy              =    -442.38295097 Ry
     Harris-Foulkes estimate   =    -442.38295097 Ry
     estimated scf accuracy    <          9.4E-13 Ry

     The total energy is the sum of the following terms:

     one-electron contribution =      -5.95190027 Ry
     hartree contribution      =      69.32529979 Ry
     xc contribution           =    -125.62709903 Ry
     ewald contribution        =    -380.12925147 Ry

     convergence has been achieved in   9 iterations

     Forces acting on atoms (cartesian axes, Ry/au):

     atom    1 type  1   force =    -0.00275276   -0.00275276    0.00000000
     atom    2 type  1   force =    -0.00072517   -0.00072517    0.00000000
     atom    3 type  2   force =     0.00503661   -0.00862118    0.00000000
     atom    4 type  2   force =    -0.00862118    0.00503661    0.00000000
     atom    5 type  2   force =     0.00995321    0.00995321    0.00000000
     atom    6 type  2   force =    -0.00289070   -0.00289070    0.00000000

     Total force =     0.020747     Total SCF correction =     0.000002


     Computing stress (Cartesian axis) and pressure

          total   stress  (Ry/bohr**3)                   (kbar)     P=   -9.59
  -0.00025589  -0.00000187   0.00000000        -37.64     -0.28      0.00
  -0.00000187  -0.00025589   0.00000000         -0.28    -37.64      0.00
   0.00000000   0.00000000   0.00031625          0.00      0.00     46.52


     number of scf cycles    =  10
     number of bfgs steps    =   6

     enthalpy old            =    -442.3822116695 Ry
     enthalpy new            =    -442.3829509690 Ry

     CASE: enthalpy_new < enthalpy_old

     new trust radius        =       0.0117164571 bohr
     new conv_thr            =            1.0E-12 Ry

     new unit-cell volume =    257.75340 a.u.^3 (    38.19511 Ang^3 )
     density =     13.10411 g/cm^3

CELL_PARAMETERS (alat=  9.11000000)
   0.790717317   0.000000000   0.000000000
   0.000000000   0.790717317   0.000000000
   0.000000000   0.000000000   0.545263940

ATOMIC_POSITIONS (crystal)
Sn      -0.000042246  -0.000042246   0.000000000
Sn       0.499989741   0.499989741   0.500000000
O        0.801693415   0.196551637   0.500000000
O        0.196551637   0.801693415   0.500000000
O        0.302456267   0.302456267   0.000000000
O        0.697351186   0.697351186   0.000000000



     Writing output data file SnO2.save
     NEW-OLD atomic charge density approx. for the potential

     Check: negative/imaginary core charge=   -0.000739    0.000000
     extrapolated charge   51.95444, renormalised to   52.00000

     total cpu time spent up to now is    16835.4 secs

     Self-consistent Calculation

     iteration #  1     ecut=    25.00 Ry     beta= 0.70
     Davidson diagonalization with overlap
     ethr =  1.00E-06,  avg # of iterations =  4.0

     total cpu time spent up to now is    17029.0 secs

     total energy              =    -442.38316028 Ry
     Harris-Foulkes estimate   =    -442.42286876 Ry
     estimated scf accuracy    <       0.00021138 Ry

     iteration #  2     ecut=    25.00 Ry     beta= 0.70
     Davidson diagonalization with overlap
     ethr =  4.07E-07,  avg # of iterations =  2.0

     total cpu time spent up to now is    17159.3 secs

     total energy              =    -442.38325332 Ry
     Harris-Foulkes estimate   =    -442.38327756 Ry
     estimated scf accuracy    <       0.00004889 Ry

     iteration #  3     ecut=    25.00 Ry     beta= 0.70
     Davidson diagonalization with overlap
     ethr =  9.40E-08,  avg # of iterations =  2.0

     total cpu time spent up to now is    17273.2 secs

     total energy              =    -442.38325930 Ry
     Harris-Foulkes estimate   =    -442.38325968 Ry
     estimated scf accuracy    <       0.00000220 Ry

     iteration #  4     ecut=    25.00 Ry     beta= 0.70
     Davidson diagonalization with overlap
     ethr =  4.23E-09,  avg # of iterations =  2.0

     total cpu time spent up to now is    17401.0 secs

     total energy              =    -442.38325972 Ry
     Harris-Foulkes estimate   =    -442.38325981 Ry
     estimated scf accuracy    <       0.00000018 Ry

     iteration #  5     ecut=    25.00 Ry     beta= 0.70
     Davidson diagonalization with overlap
     ethr =  3.48E-10,  avg # of iterations =  2.0

     total cpu time spent up to now is    17529.1 secs

     total energy              =    -442.38325976 Ry
     Harris-Foulkes estimate   =    -442.38325978 Ry
     estimated scf accuracy    <       0.00000003 Ry

     iteration #  6     ecut=    25.00 Ry     beta= 0.70
     Davidson diagonalization with overlap
     ethr =  5.85E-11,  avg # of iterations =  2.0

     total cpu time spent up to now is    17655.9 secs

     total energy              =    -442.38325977 Ry
     Harris-Foulkes estimate   =    -442.38325977 Ry
     estimated scf accuracy    <          3.3E-09 Ry

     iteration #  7     ecut=    25.00 Ry     beta= 0.70
     Davidson diagonalization with overlap
     ethr =  6.31E-12,  avg # of iterations =  2.0

     total cpu time spent up to now is    17775.2 secs

     total energy              =    -442.38325977 Ry
     Harris-Foulkes estimate   =    -442.38325977 Ry
     estimated scf accuracy    <          5.5E-11 Ry

[...]


     Computing stress (Cartesian axis) and pressure

          total   stress  (Ry/bohr**3)                   (kbar)     P=    0.14
   0.00000046   0.00716380   0.00000000          0.07   1053.83      0.00
   0.00716380   0.00000046   0.00000000       1053.83      0.07      0.00
   0.00000000   0.00000000   0.00000187          0.00      0.00      0.28


     number of scf cycles    =  48
     number of bfgs steps    =  41

     enthalpy old            =    -442.6674460050 Ry
     enthalpy new            =    -442.6674463030 Ry

     CASE: enthalpy_new < enthalpy_old

     small trust_radius: resetting bfgs history

     new trust radius        =       0.0001000000 bohr
     new conv_thr            =            1.0E-12 Ry

     new unit-cell volume =    250.42349 a.u.^3 (    37.10893 Ang^3 )
     density =     13.48767 g/cm^3

CELL_PARAMETERS (alat=  9.11000000)
   0.780847341   0.000000000   0.000000000
   0.000000000   0.780847341   0.000000000
   0.000000000   0.000000000   0.543234890

ATOMIC_POSITIONS (crystal)
Sn       0.046614904   0.046614904   0.000000000
Sn       0.555518733   0.555518733   0.500000000
O        0.703258987   0.115751275   0.500000000
O        0.115751275   0.703258987   0.500000000
O        0.344106550   0.344106550   0.000000000
O        0.732749551   0.732749551   0.000000000



     Writing output data file SnO2.save
     NEW-OLD atomic charge density approx. for the potential

     Check: negative/imaginary core charge=   -0.000687    0.000000
     extrapolated charge   52.00239, renormalised to   52.00000

     total cpu time spent up to now is    65665.0 secs

     Self-consistent Calculation

     iteration #  1     ecut=    25.00 Ry     beta= 0.70
     Davidson diagonalization with overlap
     ethr =  1.00E-06,  avg # of iterations =  1.0

     Threshold (ethr) on eigenvalues was too large:
     Diagonalizing with lowered threshold

     Davidson diagonalization with overlap
     ethr =  2.76E-10,  avg # of iterations =  3.3

     total cpu time spent up to now is    65913.8 secs

     total energy              =    -442.66744602 Ry
     Harris-Foulkes estimate   =    -442.66601974 Ry
     estimated scf accuracy    <       0.00000015 Ry

     iteration #  2     ecut=    25.00 Ry     beta= 0.70
     Davidson diagonalization with overlap
     ethr =  2.86E-10,  avg # of iterations =  3.2

     total cpu time spent up to now is    66072.2 secs

     total energy              =    -442.66744622 Ry
     Harris-Foulkes estimate   =    -442.66744630 Ry
     estimated scf accuracy    <       0.00000020 Ry

     iteration #  3     ecut=    25.00 Ry     beta= 0.70
     Davidson diagonalization with overlap
     ethr =  2.86E-10,  avg # of iterations =  2.0

     total cpu time spent up to now is    66181.9 secs

     total energy              =    -442.66744623 Ry
     Harris-Foulkes estimate   =    -442.66744623 Ry
     estimated scf accuracy    <       0.00000003 Ry

     iteration #  4     ecut=    25.00 Ry     beta= 0.70
     Davidson diagonalization with overlap
     ethr =  4.86E-11,  avg # of iterations =  1.1

     total cpu time spent up to now is    66271.4 secs

     total energy              =    -442.66744622 Ry
     Harris-Foulkes estimate   =    -442.66744623 Ry
     estimated scf accuracy    <          9.7E-09 Ry

     iteration #  5     ecut=    25.00 Ry     beta= 0.70
     Davidson diagonalization with overlap
     ethr =  1.87E-11,  avg # of iterations =  2.3

     total cpu time spent up to now is    66402.7 secs

     total energy              =    -442.66744622 Ry
     Harris-Foulkes estimate   =    -442.66744622 Ry
     estimated scf accuracy    <          6.8E-11 Ry

     iteration #  6     ecut=    25.00 Ry     beta= 0.70
     Davidson diagonalization with overlap
     ethr =  1.30E-13,  avg # of iterations =  3.0

     total cpu time spent up to now is    66545.3 secs

     total energy              =    -442.66744622 Ry
     Harris-Foulkes estimate   =    -442.66744622 Ry
     estimated scf accuracy    <          1.4E-11 Ry

     iteration #  7     ecut=    25.00 Ry     beta= 0.70
     Davidson diagonalization with overlap
     ethr =  1.00E-13,  avg # of iterations =  1.8

     total cpu time spent up to now is    66640.1 secs

     total energy              =    -442.66744622 Ry
     Harris-Foulkes estimate   =    -442.66744622 Ry
     estimated scf accuracy    <          9.4E-12 Ry

     iteration #  8     ecut=    25.00 Ry     beta= 0.70
     Davidson diagonalization with overlap
     ethr =  1.00E-13,  avg # of iterations =  1.0

     total cpu time spent up to now is    66728.9 secs

     total energy              =    -442.66744622 Ry
     Harris-Foulkes estimate   =    -442.66744622 Ry
     estimated scf accuracy    <          1.3E-12 Ry

     iteration #  9     ecut=    25.00 Ry     beta= 0.70
     Davidson diagonalization with overlap
     ethr =  1.00E-13,  avg # of iterations =  1.0

     total cpu time spent up to now is    66817.9 secs

     End of self-consistent calculation

     Number of k-points >= 100: set verbosity='high' to print the bands.

     highest occupied level (ev):    26.0501

!    total energy              =    -442.66744622 Ry
     Harris-Foulkes estimate   =    -442.66744622 Ry
     estimated scf accuracy    <          3.8E-14 Ry

     The total energy is the sum of the following terms:

     one-electron contribution =      12.82806370 Ry
     hartree contribution      =      61.94671748 Ry
     xc contribution           =    -125.33773100 Ry
     ewald contribution        =    -392.10449641 Ry

     convergence has been achieved in   9 iterations

     Forces acting on atoms (cartesian axes, Ry/au):

     atom    1 type  1   force =    -0.00016083   -0.00016083    0.00000000
     atom    2 type  1   force =    -0.00004260   -0.00004260    0.00000000
     atom    3 type  2   force =    -0.00001016    0.00005216    0.00000000
     atom    4 type  2   force =     0.00005216   -0.00001016    0.00000000
     atom    5 type  2   force =     0.00027564    0.00027564    0.00000000
     atom    6 type  2   force =    -0.00011422   -0.00011422    0.00000000

     Total force =     0.000489     Total SCF correction =     0.000001


     Computing stress (Cartesian axis) and pressure

          total   stress  (Ry/bohr**3)                   (kbar)     P=   -1.38
  -0.00000645   0.00716456   0.00000000         -0.95   1053.94      0.00
   0.00716456  -0.00000645   0.00000000       1053.94     -0.95      0.00
   0.00000000   0.00000000  -0.00001525          0.00      0.00     -2.24


     number of scf cycles    =  49
     number of bfgs steps    =  42

     enthalpy old            =    -442.6674463030 Ry
     enthalpy new            =    -442.6674462246 Ry

     CASE: enthalpy_new > enthalpy_old

     new trust radius        =       0.0000185150 bohr

     trust_radius < trust_radius_min

     resetting bfgs history

     Message from routine bfgs:
     history already reset at previous step: stopping
     new conv_thr            =            1.0E-12 Ry

     new unit-cell volume =    250.42943 a.u.^3 (    37.10981 Ang^3 )
     density =     13.48735 g/cm^3

CELL_PARAMETERS (alat=  9.11000000)
   0.780850389   0.000000000   0.000000000
   0.000000000   0.780850389   0.000000000
   0.000000000   0.000000000   0.543243537

ATOMIC_POSITIONS (crystal)
Sn       0.046615923   0.046615923   0.000000000
Sn       0.555521462   0.555521462   0.500000000
O        0.703260159   0.115748576   0.500000000
O        0.115748576   0.703260159   0.500000000
O        0.344101426   0.344101426   0.000000000
O        0.732752454   0.732752454   0.000000000



     Writing output data file SnO2.save
     NEW-OLD atomic charge density approx. for the potential

     Check: negative/imaginary core charge=   -0.000687    0.000000
     extrapolated charge   52.00123, renormalised to   52.00000

     total cpu time spent up to now is    66852.7 secs

     Self-consistent Calculation

     iteration #  1     ecut=    25.00 Ry     beta= 0.70
     Davidson diagonalization with overlap
     ethr =  1.00E-06,  avg # of iterations =  1.0

     Threshold (ethr) on eigenvalues was too large:
     Diagonalizing with lowered threshold

     Davidson diagonalization with overlap
     ethr =  7.34E-11,  avg # of iterations =  3.3

     total cpu time spent up to now is    67101.5 secs

     total energy              =    -442.66744603 Ry
     Harris-Foulkes estimate   =    -442.66671072 Ry
     estimated scf accuracy    <       0.00000004 Ry

     iteration #  2     ecut=    25.00 Ry     beta= 0.70
     Davidson diagonalization with overlap
     ethr =  7.60E-11,  avg # of iterations =  3.2

     total cpu time spent up to now is    67259.9 secs

     total energy              =    -442.66744608 Ry
     Harris-Foulkes estimate   =    -442.66744611 Ry
     estimated scf accuracy    <       0.00000005 Ry

     iteration #  3     ecut=    25.00 Ry     beta= 0.70
     Davidson diagonalization with overlap
     ethr =  7.60E-11,  avg # of iterations =  2.0

     total cpu time spent up to now is    67369.5 secs

     total energy              =    -442.66744609 Ry
     Harris-Foulkes estimate   =    -442.66744609 Ry
     estimated scf accuracy    <          6.7E-09 Ry

     iteration #  4     ecut=    25.00 Ry     beta= 0.70
     Davidson diagonalization with overlap
     ethr =  1.29E-11,  avg # of iterations =  1.1

     total cpu time spent up to now is    67458.9 secs

     total energy              =    -442.66744609 Ry
     Harris-Foulkes estimate   =    -442.66744609 Ry
     estimated scf accuracy    <          2.6E-09 Ry

     iteration #  5     ecut=    25.00 Ry     beta= 0.70
     Davidson diagonalization with overlap
     ethr =  4.96E-12,  avg # of iterations =  2.3

     total cpu time spent up to now is    67590.2 secs

     total energy              =    -442.66744609 Ry
     Harris-Foulkes estimate   =    -442.66744609 Ry
     estimated scf accuracy    <          1.8E-11 Ry

     iteration #  6     ecut=    25.00 Ry     beta= 0.70
     Davidson diagonalization with overlap
     ethr =  1.00E-13,  avg # of iterations =  2.2

     total cpu time spent up to now is    67709.1 secs

     total energy              =    -442.66744609 Ry
     Harris-Foulkes estimate   =    -442.66744609 Ry
     estimated scf accuracy    <          3.5E-12 Ry

     iteration #  7     ecut=    25.00 Ry     beta= 0.70
     Davidson diagonalization with overlap
     ethr =  1.00E-13,  avg # of iterations =  1.0

     total cpu time spent up to now is    67797.9 secs

     total energy              =    -442.66744609 Ry
     Harris-Foulkes estimate   =    -442.66744609 Ry
     estimated scf accuracy    <          2.5E-12 Ry

     iteration #  8     ecut=    25.00 Ry     beta= 0.70
     Davidson diagonalization with overlap
     ethr =  1.00E-13,  avg # of iterations =  1.0

     total cpu time spent up to now is    67886.7 secs

     End of self-consistent calculation

     Number of k-points >= 100: set verbosity='high' to print the bands.

     highest occupied level (ev):    26.0493

!    total energy              =    -442.66744609 Ry
     Harris-Foulkes estimate   =    -442.66744609 Ry
     estimated scf accuracy    <          3.4E-13 Ry

     The total energy is the sum of the following terms:

     one-electron contribution =      12.82476646 Ry
     hartree contribution      =      61.94703745 Ry
     xc contribution           =    -125.33743389 Ry
     ewald contribution        =    -392.10181610 Ry

     convergence has been achieved in   8 iterations

     Forces acting on atoms (cartesian axes, Ry/au):

     atom    1 type  1   force =    -0.00025425   -0.00025425    0.00000000
     atom    2 type  1   force =    -0.00009451   -0.00009451    0.00000000
     atom    3 type  2   force =    -0.00002814    0.00010812    0.00000000
     atom    4 type  2   force =     0.00010812   -0.00002814    0.00000000
     atom    5 type  2   force =     0.00047306    0.00047306    0.00000000
     atom    6 type  2   force =    -0.00020428   -0.00020428    0.00000000

     Total force =     0.000839     Total SCF correction =     0.000002


     Computing stress (Cartesian axis) and pressure

          total   stress  (Ry/bohr**3)                   (kbar)     P=   -2.16
  -0.00001003   0.00716495   0.00000000         -1.48   1054.00      0.00
   0.00716495  -0.00001003   0.00000000       1054.00     -1.48      0.00
   0.00000000   0.00000000  -0.00002409          0.00      0.00     -3.54


     bfgs converged in  50 scf cycles and  42 bfgs steps
     (criteria: energy <  1.0E-10 Ry, force <  1.0E-09Ry/Bohr, cell <  5.0E-01kbar)

     End of BFGS Geometry Optimization

     Final enthalpy =    -442.6674460870 Ry
Begin final coordinates
     new unit-cell volume =    250.42943 a.u.^3 (    37.10981 Ang^3 )
     density =     13.48735 g/cm^3

CELL_PARAMETERS (alat=  9.11000000)
   0.780850389   0.000000000   0.000000000
   0.000000000   0.780850389   0.000000000
   0.000000000   0.000000000   0.543243537

ATOMIC_POSITIONS (crystal)
Sn       0.046615923   0.046615923   0.000000000
Sn       0.555521462   0.555521462   0.500000000
O        0.703260159   0.115748576   0.500000000
O        0.115748576   0.703260159   0.500000000
O        0.344101426   0.344101426   0.000000000
O        0.732752454   0.732752454   0.000000000
End final coordinates



     A final scf calculation at the relaxed structure.
     The G-vectors are recalculated for the final unit cell
     Results may differ from those at the preceding step.
 
     Parallelization info
     --------------------
     sticks:   dense  smooth     PW     G-vecs:    dense   smooth      PW
     Min         202     202     68                 2125     2125     436
     Max         203     203     69                 2126     2126     437
     Sum         405     405    137                 4251     4251     873
 


     bravais-lattice index     =            6
     lattice parameter (alat)  =       9.1100  a.u.
     unit-cell volume          =     250.4294 (a.u.)^3
     number of atoms/cell      =            6
     number of atomic types    =            2
     number of electrons       =        52.00
     number of Kohn-Sham states=           26
     kinetic-energy cutoff     =      25.0000  Ry
     charge density cutoff     =     100.0000  Ry
     convergence threshold     =      1.0E-12
     mixing beta               =       0.7000
     number of iterations used =            8  plain     mixing
     Exchange-correlation      = PBE ( 1  4  3  4 0 0)

     celldm(1)=   9.110000  celldm(2)=   0.000000  celldm(3)=   0.670000
     celldm(4)=   0.000000  celldm(5)=   0.000000  celldm(6)=   0.000000

     crystal axes: (cart. coord. in units of alat)
               a(1) = (   0.780850   0.000000   0.000000 )  
               a(2) = (   0.000000   0.780850   0.000000 )  
               a(3) = (   0.000000   0.000000   0.543244 )  

     reciprocal axes: (cart. coord. in units 2 pi/alat)
               b(1) = (  1.280655  0.000000  0.000000 )  
               b(2) = (  0.000000  1.280655  0.000000 )  
               b(3) = (  0.000000  0.000000  1.840795 )  


     PseudoPot. # 1 for Sn read from file:
     ../../Pseudo_potentials/Sn_PBE.upf
     MD5 check sum: 78e6386ae56e929f0568ae8bf606a80c
     Pseudo is Norm-conserving + core correction, Zval = 14.0
     Generated using ONCVPSP code by D. R. Hamann
     Using radial grid of 1628 points,  6 beta functions with: 
                l(1) =   0
                l(2) =   0
                l(3) =   1
                l(4) =   1
                l(5) =   2
                l(6) =   2

     PseudoPot. # 2 for O  read from file:
     ../../Pseudo_potentials/O_PBE.upf
     MD5 check sum: 3e3f909f7470e8921608ab6b1f57bbae
     Pseudo is Norm-conserving + core correction, Zval =  6.0
     Generated using ONCVPSP code by D. R. Hamann
     Using radial grid of  936 points,  5 beta functions with: 
                l(1) =   0
                l(2) =   0
                l(3) =   1
                l(4) =   1
                l(5) =   2

     atomic species   valence    mass     pseudopotential
        Sn            14.00   118.71000     Sn( 1.00)
        O              6.00    15.99900     O ( 1.00)

      4 Sym. Ops. (no inversion) found



   Cartesian axes

     site n.     atom                  positions (alat units)
         1           Sn  tau(   1) = (   0.0364001   0.0364001   0.0000000  )
         2           Sn  tau(   2) = (   0.4337791   0.4337791   0.2716218  )
         3           O   tau(   3) = (   0.5491410   0.0903823   0.2716218  )
         4           O   tau(   4) = (   0.0903823   0.5491410   0.2716218  )
         5           O   tau(   5) = (   0.2686917   0.2686917   0.0000000  )
         6           O   tau(   6) = (   0.5721700   0.5721700   0.0000000  )

     number of k points=  1596

     Number of k-points >= 100: set verbosity='high' to print them.

     Dense  grid:     4251 G-vectors     FFT dimensions: (  24,  24,  15)

     Estimated max dynamical RAM per process >     174.97 MB

     Estimated total dynamical RAM >     349.95 MB

     Check: negative/imaginary core charge=   -0.003337    0.000000

     Initial potential from superposition of free atoms
     Check: negative starting charge=   -0.004683

     starting charge   51.99690, renormalised to   52.00000

     negative rho (up, down):  4.684E-03 0.000E+00
     Starting wfc are   34 randomized atomic wfcs

     Writing output data file SnO2.save

     Writing output data file SnO2.save
 
     init_run     :     54.71s CPU     63.49s WALL (       2 calls)
     electrons    :  56910.08s CPU  66124.28s WALL (      50 calls)
     update_pot   :     20.41s CPU     20.64s WALL (      49 calls)
     forces       :    481.27s CPU    495.78s WALL (      50 calls)
     stress       :   1140.62s CPU   1202.27s WALL (      50 calls)

     Called by init_run:
     wfcinit      :     54.14s CPU     62.86s WALL (       2 calls)
     potinit      :      0.14s CPU      0.20s WALL (       2 calls)
     hinit0       :      0.40s CPU      0.41s WALL (       2 calls)

     Called by electrons:
     c_bands      :  51903.93s CPU  60846.61s WALL (     503 calls)
     sum_band     :   5001.78s CPU   5269.62s WALL (     503 calls)
     v_of_rho     :      3.54s CPU      3.54s WALL (     541 calls)
     mix_rho      :      0.87s CPU      1.04s WALL (     503 calls)

     Called by c_bands:
     init_us_2    :    770.41s CPU    969.59s WALL ( 1768368 calls)
     cegterg      :  47399.14s CPU  56272.06s WALL (  802788 calls)

     Called by sum_band:

     Called by *egterg:
     h_psi        :  33950.97s CPU  42049.60s WALL ( 2739517 calls)
     g_psi        :    278.88s CPU    303.79s WALL ( 1933537 calls)
     cdiaghg      :   5515.71s CPU   5768.26s WALL ( 2638969 calls)

     Called by h_psi:
     h_psi:pot    :  33739.87s CPU  41685.12s WALL ( 2739517 calls)
     h_psi:calbec :   3297.72s CPU   3324.47s WALL ( 2739517 calls)
     vloc_psi     :  28278.28s CPU  34944.19s WALL ( 2739517 calls)
     add_vuspsi   :   2156.88s CPU   3397.88s WALL ( 2739517 calls)

     General routines
     calbec       :   3841.06s CPU   3745.98s WALL ( 3138517 calls)
     fft          :      2.26s CPU      2.34s WALL (    6724 calls)
     ffts         :      0.20s CPU      0.17s WALL (     503 calls)
     fftw         :  32410.59s CPU  36864.70s WALL (******** calls)
     davcio       :      0.00s CPU      0.16s WALL (    1596 calls)
 
     Parallel routines
     fft_scatt_xy :    425.08s CPU   2761.86s WALL (******** calls)
     fft_scatt_yz :  27720.77s CPU   5121.90s WALL (******** calls)
 
     PWSCF        :    16h17m CPU       18h52m WALL

 
   This run was terminated on:   8:17:24  11Apr2018            

=------------------------------------------------------------------------------=
   JOB DONE.
=------------------------------------------------------------------------------=
