
     Program PWSCF v.6.2.2 starts on  7Apr2018 at 23:52:22 

     This program is part of the open-source Quantum ESPRESSO suite
     for quantum simulation of materials; please cite
         "P. Giannozzi et al., J. Phys.:Condens. Matter 21 395502 (2009);
         "P. Giannozzi et al., J. Phys.:Condens. Matter 29 465901 (2017);
          URL http://www.quantum-espresso.org", 
     in publications or presentations arising from this work. More details at
     http://www.quantum-espresso.org/quote

     Parallel version (MPI), running on     2 processors

     MPI processes distributed on     1 nodes
     R & G space division:  proc/nbgrp/npool/nimage =       2
     Reading input from Conv_acell-kp.in
Warning: card &IONS ignored
Warning: card / ignored
Warning: card &CELL ignored
Warning: card / ignored

     Current dimensions of program PWSCF are:
     Max number of different atomic species (ntypx) = 10
     Max number of k-points (npk) =  40000
     Max angular momentum in pseudopotentials (lmaxx) =  3

     Subspace diagonalization in iterative solution of the eigenvalue problem:
     a serial algorithm will be used

 
     Parallelization info
     --------------------
     sticks:   dense  smooth     PW     G-vecs:    dense   smooth      PW
     Min         200     200     68                 2007     2007     408
     Max         201     201     69                 2008     2008     409
     Sum         401     401    137                 4015     4015     817
 


     bravais-lattice index     =            6
     lattice parameter (alat)  =       9.1100  a.u.
     unit-cell volume          =     506.5589 (a.u.)^3
     number of atoms/cell      =            6
     number of atomic types    =            2
     number of electrons       =        52.00
     number of Kohn-Sham states=           26
     kinetic-energy cutoff     =      15.0000  Ry
     charge density cutoff     =      60.0000  Ry
     convergence threshold     =      1.0E-12
     mixing beta               =       0.7000
     number of iterations used =            8  plain     mixing
     Exchange-correlation      = PBE ( 1  4  3  4 0 0)

     celldm(1)=   9.110000  celldm(2)=   0.000000  celldm(3)=   0.670000
     celldm(4)=   0.000000  celldm(5)=   0.000000  celldm(6)=   0.000000

     crystal axes: (cart. coord. in units of alat)
               a(1) = (   1.000000   0.000000   0.000000 )  
               a(2) = (   0.000000   1.000000   0.000000 )  
               a(3) = (   0.000000   0.000000   0.670000 )  

     reciprocal axes: (cart. coord. in units 2 pi/alat)
               b(1) = (  1.000000  0.000000  0.000000 )  
               b(2) = (  0.000000  1.000000  0.000000 )  
               b(3) = (  0.000000  0.000000  1.492537 )  


     PseudoPot. # 1 for Sn read from file:
     ../../Pseudo_potentials/Sn_PBE.upf
     MD5 check sum: 78e6386ae56e929f0568ae8bf606a80c
     Pseudo is Norm-conserving + core correction, Zval = 14.0
     Generated using ONCVPSP code by D. R. Hamann
     Using radial grid of 1628 points,  6 beta functions with: 
                l(1) =   0
                l(2) =   0
                l(3) =   1
                l(4) =   1
                l(5) =   2
                l(6) =   2

     PseudoPot. # 2 for O  read from file:
     ../../Pseudo_potentials/O_PBE.upf
     MD5 check sum: 3e3f909f7470e8921608ab6b1f57bbae
     Pseudo is Norm-conserving + core correction, Zval =  6.0
     Generated using ONCVPSP code by D. R. Hamann
     Using radial grid of  936 points,  5 beta functions with: 
                l(1) =   0
                l(2) =   0
                l(3) =   1
                l(4) =   1
                l(5) =   2

     atomic species   valence    mass     pseudopotential
        Sn            14.00   118.71000     Sn( 1.00)
        O              6.00    15.99900     O ( 1.00)

      4 Sym. Ops. (no inversion) found



   Cartesian axes

     site n.     atom                  positions (alat units)
         1           Sn  tau(   1) = (   0.0000000   0.0000000   0.0000000  )
         2           Sn  tau(   2) = (   0.5000000   0.5000000   0.3350000  )
         3           O   tau(   3) = (   0.8060000   0.1930000   0.3350000  )
         4           O   tau(   4) = (   0.1930000   0.8060000   0.3350000  )
         5           O   tau(   5) = (   0.3060000   0.3060000   0.0000000  )
         6           O   tau(   6) = (   0.6930000   0.6930000   0.0000000  )

     number of k points=   456

     Number of k-points >= 100: set verbosity='high' to print them.

     Dense  grid:     4015 G-vectors     FFT dimensions: (  24,  24,  15)

     Estimated max dynamical RAM per process >      49.63 MB

     Estimated total dynamical RAM >      99.26 MB

     Check: negative/imaginary core charge=   -0.005277    0.000000

     Initial potential from superposition of free atoms
     Check: negative starting charge=   -0.053732

     starting charge   51.99690, renormalised to   52.00000

     negative rho (up, down):  5.373E-02 0.000E+00
     Starting wfc are   34 randomized atomic wfcs

     total cpu time spent up to now is        7.1 secs

     Self-consistent Calculation

     iteration #  1     ecut=    15.00 Ry     beta= 0.70
     Davidson diagonalization with overlap
     ethr =  1.00E-02,  avg # of iterations =  3.0

     negative rho (up, down):  1.590E-02 0.000E+00

     total cpu time spent up to now is       29.9 secs

     total energy              =    -393.39618745 Ry
     Harris-Foulkes estimate   =    -412.18339314 Ry
     estimated scf accuracy    <      24.21149221 Ry

     iteration #  2     ecut=    15.00 Ry     beta= 0.70
     Davidson diagonalization with overlap
     ethr =  1.00E-02,  avg # of iterations =  3.3

     negative rho (up, down):  4.809E-03 0.000E+00

     total cpu time spent up to now is       56.9 secs

     total energy              =    -398.12460703 Ry
     Harris-Foulkes estimate   =    -400.46359526 Ry
     estimated scf accuracy    <       3.76079048 Ry

     iteration #  3     ecut=    15.00 Ry     beta= 0.70
     Davidson diagonalization with overlap
     ethr =  7.23E-03,  avg # of iterations =  3.4

     negative rho (up, down):  9.890E-04 0.000E+00

     total cpu time spent up to now is       84.1 secs

     total energy              =    -398.96264762 Ry
     Harris-Foulkes estimate   =    -399.39860758 Ry
     estimated scf accuracy    <       0.79350379 Ry

     iteration #  4     ecut=    15.00 Ry     beta= 0.70
     Davidson diagonalization with overlap
     ethr =  1.53E-03,  avg # of iterations =  2.6

     total cpu time spent up to now is      105.6 secs

     total energy              =    -399.12872073 Ry
     Harris-Foulkes estimate   =    -399.14290868 Ry
     estimated scf accuracy    <       0.03268774 Ry

     iteration #  5     ecut=    15.00 Ry     beta= 0.70
     Davidson diagonalization with overlap
     ethr =  6.29E-05,  avg # of iterations =  2.6

     total cpu time spent up to now is      125.0 secs

     total energy              =    -399.13537059 Ry
     Harris-Foulkes estimate   =    -399.13555581 Ry
     estimated scf accuracy    <       0.00060776 Ry

     iteration #  6     ecut=    15.00 Ry     beta= 0.70
     Davidson diagonalization with overlap
     ethr =  1.17E-06,  avg # of iterations =  4.1

     total cpu time spent up to now is      155.8 secs

     total energy              =    -399.13581701 Ry
     Harris-Foulkes estimate   =    -399.13624902 Ry
     estimated scf accuracy    <       0.00100240 Ry

     iteration #  7     ecut=    15.00 Ry     beta= 0.70
     Davidson diagonalization with overlap
     ethr =  1.17E-06,  avg # of iterations =  3.8

     total cpu time spent up to now is      180.5 secs

     total energy              =    -399.13603396 Ry
     Harris-Foulkes estimate   =    -399.13608547 Ry
     estimated scf accuracy    <       0.00015475 Ry

     iteration #  8     ecut=    15.00 Ry     beta= 0.70
     Davidson diagonalization with overlap
     ethr =  2.98E-07,  avg # of iterations =  3.3

     total cpu time spent up to now is      199.6 secs

     total energy              =    -399.13605490 Ry
     Harris-Foulkes estimate   =    -399.13605810 Ry
     estimated scf accuracy    <       0.00000595 Ry

     iteration #  9     ecut=    15.00 Ry     beta= 0.70
     Davidson diagonalization with overlap
     ethr =  1.14E-08,  avg # of iterations =  3.6

     total cpu time spent up to now is      225.8 secs

     total energy              =    -399.13606055 Ry
     Harris-Foulkes estimate   =    -399.13606182 Ry
     estimated scf accuracy    <       0.00000353 Ry

     iteration # 10     ecut=    15.00 Ry     beta= 0.70
     Davidson diagonalization with overlap
     ethr =  6.80E-09,  avg # of iterations =  3.4

     total cpu time spent up to now is      245.4 secs

     total energy              =    -399.13606095 Ry
     Harris-Foulkes estimate   =    -399.13606117 Ry
     estimated scf accuracy    <       0.00000044 Ry

     iteration # 11     ecut=    15.00 Ry     beta= 0.70
     Davidson diagonalization with overlap
     ethr =  8.44E-10,  avg # of iterations =  3.1

     total cpu time spent up to now is      266.6 secs

     total energy              =    -399.13606102 Ry
     Harris-Foulkes estimate   =    -399.13606104 Ry
     estimated scf accuracy    <       0.00000002 Ry

     iteration # 12     ecut=    15.00 Ry     beta= 0.70
     Davidson diagonalization with overlap
     ethr =  3.01E-11,  avg # of iterations =  3.7

     total cpu time spent up to now is      288.5 secs

     total energy              =    -399.13606103 Ry
     Harris-Foulkes estimate   =    -399.13606103 Ry
     estimated scf accuracy    <          3.9E-10 Ry

     iteration # 13     ecut=    15.00 Ry     beta= 0.70
     Davidson diagonalization with overlap
     ethr =  7.59E-13,  avg # of iterations =  3.7

     total cpu time spent up to now is      315.6 secs

     total energy              =    -399.13606103 Ry
     Harris-Foulkes estimate   =    -399.13606103 Ry
     estimated scf accuracy    <          1.0E-10 Ry

     iteration # 14     ecut=    15.00 Ry     beta= 0.70
     Davidson diagonalization with overlap
     ethr =  1.96E-13,  avg # of iterations =  2.2

     total cpu time spent up to now is      337.9 secs

     total energy              =    -399.13606103 Ry
     Harris-Foulkes estimate   =    -399.13606103 Ry
     estimated scf accuracy    <          7.2E-12 Ry

     iteration # 15     ecut=    15.00 Ry     beta= 0.70
     Davidson diagonalization with overlap
     ethr =  1.00E-13,  avg # of iterations =  1.6

     total cpu time spent up to now is      351.7 secs

     End of self-consistent calculation

     Number of k-points >= 100: set verbosity='high' to print the bands.

     highest occupied level (ev):    13.2876

!    total energy              =    -399.13606103 Ry
     Harris-Foulkes estimate   =    -399.13606103 Ry
     estimated scf accuracy    <          2.3E-13 Ry

     The total energy is the sum of the following terms:

     one-electron contribution =     -51.27685135 Ry
     hartree contribution      =      63.89018396 Ry
     xc contribution           =    -109.26805763 Ry
     ewald contribution        =    -302.48133600 Ry

     convergence has been achieved in  15 iterations

     Writing output data file SnO2.save
 
     init_run     :      6.34s CPU      6.54s WALL (       1 calls)
     electrons    :    334.63s CPU    344.65s WALL (       1 calls)

     Called by init_run:
     wfcinit      :      6.25s CPU      6.45s WALL (       1 calls)
     potinit      :      0.02s CPU      0.02s WALL (       1 calls)
     hinit0       :      0.07s CPU      0.07s WALL (       1 calls)

     Called by electrons:
     c_bands      :    309.19s CPU    318.08s WALL (      15 calls)
     sum_band     :     25.33s CPU     26.43s WALL (      15 calls)
     v_of_rho     :      0.08s CPU      0.09s WALL (      16 calls)
     mix_rho      :      0.02s CPU      0.02s WALL (      15 calls)

     Called by c_bands:
     init_us_2    :      2.20s CPU      3.48s WALL (   14136 calls)
     cegterg      :    290.12s CPU    298.36s WALL (    6840 calls)

     Called by sum_band:

     Called by *egterg:
     h_psi        :    163.29s CPU    173.70s WALL (   28879 calls)
     g_psi        :      0.69s CPU      1.08s WALL (   21583 calls)
     cdiaghg      :     92.70s CPU     90.48s WALL (   28423 calls)

     Called by h_psi:
     h_psi:pot    :    162.81s CPU    172.92s WALL (   28879 calls)
     h_psi:calbec :     18.00s CPU     17.09s WALL (   28879 calls)
     vloc_psi     :    134.25s CPU    136.62s WALL (   28879 calls)
     add_vuspsi   :     10.52s CPU     19.06s WALL (   28879 calls)

     General routines
     calbec       :     18.00s CPU     17.01s WALL (   28879 calls)
     fft          :      0.04s CPU      0.03s WALL (     161 calls)
     ffts         :      0.00s CPU      0.00s WALL (      15 calls)
     fftw         :    155.78s CPU    147.77s WALL ( 1188226 calls)
 
     Parallel routines
     fft_scatt_xy :      3.08s CPU     15.58s WALL ( 1188402 calls)
     fft_scatt_yz :    131.30s CPU     31.40s WALL ( 1188402 calls)
 
     PWSCF        :  5m41.93s CPU     5m57.17s WALL

 
   This run was terminated on:  23:58:19   7Apr2018            

=------------------------------------------------------------------------------=
   JOB DONE.
=------------------------------------------------------------------------------=
