
     Program PWSCF v.6.2.2 starts on  8Apr2018 at  0:58:44 

     This program is part of the open-source Quantum ESPRESSO suite
     for quantum simulation of materials; please cite
         "P. Giannozzi et al., J. Phys.:Condens. Matter 21 395502 (2009);
         "P. Giannozzi et al., J. Phys.:Condens. Matter 29 465901 (2017);
          URL http://www.quantum-espresso.org", 
     in publications or presentations arising from this work. More details at
     http://www.quantum-espresso.org/quote

     Parallel version (MPI), running on     2 processors

     MPI processes distributed on     1 nodes
     R & G space division:  proc/nbgrp/npool/nimage =       2
     Reading input from Conv_acell-kp.in
Warning: card &IONS ignored
Warning: card / ignored
Warning: card &CELL ignored
Warning: card / ignored

     Current dimensions of program PWSCF are:
     Max number of different atomic species (ntypx) = 10
     Max number of k-points (npk) =  40000
     Max angular momentum in pseudopotentials (lmaxx) =  3

     Subspace diagonalization in iterative solution of the eigenvalue problem:
     a serial algorithm will be used

 
     Parallelization info
     --------------------
     sticks:   dense  smooth     PW     G-vecs:    dense   smooth      PW
     Min         200     200     68                 2007     2007     408
     Max         201     201     69                 2008     2008     409
     Sum         401     401    137                 4015     4015     817
 


     bravais-lattice index     =            6
     lattice parameter (alat)  =       9.1100  a.u.
     unit-cell volume          =     506.5589 (a.u.)^3
     number of atoms/cell      =            6
     number of atomic types    =            2
     number of electrons       =        52.00
     number of Kohn-Sham states=           26
     kinetic-energy cutoff     =      15.0000  Ry
     charge density cutoff     =      60.0000  Ry
     convergence threshold     =      1.0E-12
     mixing beta               =       0.7000
     number of iterations used =            8  plain     mixing
     Exchange-correlation      = PBE ( 1  4  3  4 0 0)

     celldm(1)=   9.110000  celldm(2)=   0.000000  celldm(3)=   0.670000
     celldm(4)=   0.000000  celldm(5)=   0.000000  celldm(6)=   0.000000

     crystal axes: (cart. coord. in units of alat)
               a(1) = (   1.000000   0.000000   0.000000 )  
               a(2) = (   0.000000   1.000000   0.000000 )  
               a(3) = (   0.000000   0.000000   0.670000 )  

     reciprocal axes: (cart. coord. in units 2 pi/alat)
               b(1) = (  1.000000  0.000000  0.000000 )  
               b(2) = (  0.000000  1.000000  0.000000 )  
               b(3) = (  0.000000  0.000000  1.492537 )  


     PseudoPot. # 1 for Sn read from file:
     ../../Pseudo_potentials/Sn_PBE.upf
     MD5 check sum: 78e6386ae56e929f0568ae8bf606a80c
     Pseudo is Norm-conserving + core correction, Zval = 14.0
     Generated using ONCVPSP code by D. R. Hamann
     Using radial grid of 1628 points,  6 beta functions with: 
                l(1) =   0
                l(2) =   0
                l(3) =   1
                l(4) =   1
                l(5) =   2
                l(6) =   2

     PseudoPot. # 2 for O  read from file:
     ../../Pseudo_potentials/O_PBE.upf
     MD5 check sum: 3e3f909f7470e8921608ab6b1f57bbae
     Pseudo is Norm-conserving + core correction, Zval =  6.0
     Generated using ONCVPSP code by D. R. Hamann
     Using radial grid of  936 points,  5 beta functions with: 
                l(1) =   0
                l(2) =   0
                l(3) =   1
                l(4) =   1
                l(5) =   2

     atomic species   valence    mass     pseudopotential
        Sn            14.00   118.71000     Sn( 1.00)
        O              6.00    15.99900     O ( 1.00)

      4 Sym. Ops. (no inversion) found



   Cartesian axes

     site n.     atom                  positions (alat units)
         1           Sn  tau(   1) = (   0.0000000   0.0000000   0.0000000  )
         2           Sn  tau(   2) = (   0.5000000   0.5000000   0.3350000  )
         3           O   tau(   3) = (   0.8060000   0.1930000   0.3350000  )
         4           O   tau(   4) = (   0.1930000   0.8060000   0.3350000  )
         5           O   tau(   5) = (   0.3060000   0.3060000   0.0000000  )
         6           O   tau(   6) = (   0.6930000   0.6930000   0.0000000  )

     number of k points=  2041

     Number of k-points >= 100: set verbosity='high' to print them.

     Dense  grid:     4015 G-vectors     FFT dimensions: (  24,  24,  15)

     Estimated max dynamical RAM per process >     205.58 MB

     Estimated total dynamical RAM >     411.16 MB

     Check: negative/imaginary core charge=   -0.005277    0.000000

     Initial potential from superposition of free atoms
     Check: negative starting charge=   -0.053732

     starting charge   51.99690, renormalised to   52.00000

     negative rho (up, down):  5.373E-02 0.000E+00
     Starting wfc are   34 randomized atomic wfcs

     total cpu time spent up to now is       31.1 secs

     Self-consistent Calculation

     iteration #  1     ecut=    15.00 Ry     beta= 0.70
     Davidson diagonalization with overlap
     ethr =  1.00E-02,  avg # of iterations =  3.0

     negative rho (up, down):  1.590E-02 0.000E+00

     total cpu time spent up to now is      133.9 secs

     total energy              =    -393.37775998 Ry
     Harris-Foulkes estimate   =    -412.18063827 Ry
     estimated scf accuracy    <      24.22949520 Ry

     iteration #  2     ecut=    15.00 Ry     beta= 0.70
     Davidson diagonalization with overlap
     ethr =  1.00E-02,  avg # of iterations =  3.2

     negative rho (up, down):  4.811E-03 0.000E+00

     total cpu time spent up to now is      260.4 secs

     total energy              =    -398.12288422 Ry
     Harris-Foulkes estimate   =    -400.46442286 Ry
     estimated scf accuracy    <       3.76606796 Ry

     iteration #  3     ecut=    15.00 Ry     beta= 0.70
     Davidson diagonalization with overlap
     ethr =  7.24E-03,  avg # of iterations =  3.4

     negative rho (up, down):  9.887E-04 0.000E+00

     total cpu time spent up to now is      373.7 secs

     total energy              =    -398.95968964 Ry
     Harris-Foulkes estimate   =    -399.39530270 Ry
     estimated scf accuracy    <       0.79284196 Ry

     iteration #  4     ecut=    15.00 Ry     beta= 0.70
     Davidson diagonalization with overlap
     ethr =  1.52E-03,  avg # of iterations =  2.6

     total cpu time spent up to now is      467.4 secs

     total energy              =    -399.12587033 Ry
     Harris-Foulkes estimate   =    -399.14018248 Ry
     estimated scf accuracy    <       0.03288930 Ry

     iteration #  5     ecut=    15.00 Ry     beta= 0.70
     Davidson diagonalization with overlap
     ethr =  6.32E-05,  avg # of iterations =  2.6

     total cpu time spent up to now is      551.6 secs

     total energy              =    -399.13207023 Ry
     Harris-Foulkes estimate   =    -399.13220059 Ry
     estimated scf accuracy    <       0.00054637 Ry

     iteration #  6     ecut=    15.00 Ry     beta= 0.70
     Davidson diagonalization with overlap
     ethr =  1.05E-06,  avg # of iterations =  4.0

     total cpu time spent up to now is      677.0 secs

     total energy              =    -399.13221804 Ry
     Harris-Foulkes estimate   =    -399.13252913 Ry
     estimated scf accuracy    <       0.00068076 Ry

     iteration #  7     ecut=    15.00 Ry     beta= 0.70
     Davidson diagonalization with overlap
     ethr =  1.05E-06,  avg # of iterations =  3.7

     total cpu time spent up to now is      776.3 secs

     total energy              =    -399.13237806 Ry
     Harris-Foulkes estimate   =    -399.13243691 Ry
     estimated scf accuracy    <       0.00017517 Ry

     iteration #  8     ecut=    15.00 Ry     beta= 0.70
     Davidson diagonalization with overlap
     ethr =  3.37E-07,  avg # of iterations =  3.3

     total cpu time spent up to now is      863.3 secs

     total energy              =    -399.13240285 Ry
     Harris-Foulkes estimate   =    -399.13240483 Ry
     estimated scf accuracy    <       0.00000329 Ry

     iteration #  9     ecut=    15.00 Ry     beta= 0.70
     Davidson diagonalization with overlap
     ethr =  6.32E-09,  avg # of iterations =  3.3

     total cpu time spent up to now is      971.6 secs

     total energy              =    -399.13240398 Ry
     Harris-Foulkes estimate   =    -399.13240445 Ry
     estimated scf accuracy    <       0.00000079 Ry

     iteration # 10     ecut=    15.00 Ry     beta= 0.70
     Davidson diagonalization with overlap
     ethr =  1.51E-09,  avg # of iterations =  3.4

     total cpu time spent up to now is     1073.5 secs

     total energy              =    -399.13240411 Ry
     Harris-Foulkes estimate   =    -399.13240424 Ry
     estimated scf accuracy    <       0.00000032 Ry

     iteration # 11     ecut=    15.00 Ry     beta= 0.70
     Davidson diagonalization with overlap
     ethr =  6.07E-10,  avg # of iterations =  3.2

     total cpu time spent up to now is     1163.8 secs

     total energy              =    -399.13240416 Ry
     Harris-Foulkes estimate   =    -399.13240417 Ry
     estimated scf accuracy    <       0.00000001 Ry

     iteration # 12     ecut=    15.00 Ry     beta= 0.70
     Davidson diagonalization with overlap
     ethr =  2.00E-11,  avg # of iterations =  3.7

     total cpu time spent up to now is     1264.0 secs

     total energy              =    -399.13240426 Ry
     Harris-Foulkes estimate   =    -399.13240426 Ry
     estimated scf accuracy    <       0.00000001 Ry

     iteration # 13     ecut=    15.00 Ry     beta= 0.70
     Davidson diagonalization with overlap
     ethr =  2.00E-11,  avg # of iterations =  1.0

     total cpu time spent up to now is     1325.3 secs

     total energy              =    -399.13240426 Ry
     Harris-Foulkes estimate   =    -399.13240426 Ry
     estimated scf accuracy    <          9.4E-09 Ry

     iteration # 14     ecut=    15.00 Ry     beta= 0.70
     Davidson diagonalization with overlap
     ethr =  1.80E-11,  avg # of iterations =  2.5

     total cpu time spent up to now is     1397.5 secs

     total energy              =    -399.13240426 Ry
     Harris-Foulkes estimate   =    -399.13240426 Ry
     estimated scf accuracy    <          9.8E-10 Ry

     iteration # 15     ecut=    15.00 Ry     beta= 0.70
     Davidson diagonalization with overlap
     ethr =  1.88E-12,  avg # of iterations =  3.8

     total cpu time spent up to now is     1502.1 secs

     total energy              =    -399.13240426 Ry
     Harris-Foulkes estimate   =    -399.13240426 Ry
     estimated scf accuracy    <          1.6E-10 Ry

     iteration # 16     ecut=    15.00 Ry     beta= 0.70
     Davidson diagonalization with overlap
     ethr =  2.98E-13,  avg # of iterations =  3.5

     total cpu time spent up to now is     1590.7 secs

     total energy              =    -399.13240426 Ry
     Harris-Foulkes estimate   =    -399.13240426 Ry
     estimated scf accuracy    <          1.2E-12 Ry

     iteration # 17     ecut=    15.00 Ry     beta= 0.70
     Davidson diagonalization with overlap
     ethr =  1.00E-13,  avg # of iterations =  1.1

     total cpu time spent up to now is     1651.2 secs

     total energy              =    -399.13240426 Ry
     Harris-Foulkes estimate   =    -399.13240426 Ry
     estimated scf accuracy    <          1.2E-12 Ry

     iteration # 18     ecut=    15.00 Ry     beta= 0.70
     Davidson diagonalization with overlap
     ethr =  1.00E-13,  avg # of iterations =  1.0

     total cpu time spent up to now is     1712.2 secs

     End of self-consistent calculation

     Number of k-points >= 100: set verbosity='high' to print the bands.

     highest occupied level (ev):    13.2870

!    total energy              =    -399.13240426 Ry
     Harris-Foulkes estimate   =    -399.13240426 Ry
     estimated scf accuracy    <          1.8E-13 Ry

     The total energy is the sum of the following terms:

     one-electron contribution =     -51.26857702 Ry
     hartree contribution      =      63.88467073 Ry
     xc contribution           =    -109.26716196 Ry
     ewald contribution        =    -302.48133600 Ry

     convergence has been achieved in  18 iterations

     Writing output data file SnO2.save
 
     init_run     :     29.49s CPU     30.59s WALL (       1 calls)
     electrons    :   1628.14s CPU   1681.19s WALL (       1 calls)

     Called by init_run:
     wfcinit      :     29.34s CPU     30.34s WALL (       1 calls)
     potinit      :      0.02s CPU      0.02s WALL (       1 calls)
     hinit0       :      0.12s CPU      0.20s WALL (       1 calls)

     Called by electrons:
     c_bands      :   1503.06s CPU   1551.54s WALL (      18 calls)
     sum_band     :    124.95s CPU    129.45s WALL (      18 calls)
     v_of_rho     :      0.11s CPU      0.11s WALL (      19 calls)
     mix_rho      :      0.03s CPU      0.03s WALL (      18 calls)

     Called by c_bands:
     init_us_2    :     10.52s CPU     18.04s WALL (   75517 calls)
     cegterg      :   1400.94s CPU   1445.29s WALL (   36738 calls)

     Called by sum_band:

     Called by *egterg:
     h_psi        :    805.52s CPU    856.40s WALL (  145604 calls)
     g_psi        :      2.98s CPU      5.27s WALL (  106825 calls)
     cdiaghg      :    432.76s CPU    425.22s WALL (  143563 calls)

     Called by h_psi:
     h_psi:pot    :    803.03s CPU    852.38s WALL (  145604 calls)
     h_psi:calbec :     84.21s CPU     83.92s WALL (  145604 calls)
     vloc_psi     :    669.90s CPU    674.65s WALL (  145604 calls)
     add_vuspsi   :     48.74s CPU     93.06s WALL (  145604 calls)

     General routines
     calbec       :     84.17s CPU     83.53s WALL (  145604 calls)
     fft          :      0.04s CPU      0.04s WALL (     191 calls)
     ffts         :      0.00s CPU      0.00s WALL (      18 calls)
     fftw         :    780.32s CPU    726.76s WALL ( 6056884 calls)
 
     Parallel routines
     fft_scatt_xy :     10.90s CPU     78.04s WALL ( 6057093 calls)
     fft_scatt_yz :    690.91s CPU    156.03s WALL ( 6057093 calls)
 
     PWSCF        : 27m40.55s CPU    28m45.64s WALL

 
   This run was terminated on:   1:27:30   8Apr2018            

=------------------------------------------------------------------------------=
   JOB DONE.
=------------------------------------------------------------------------------=
