
     Program PWSCF v.6.2.2 starts on  9Apr2018 at 12:45: 7 

     This program is part of the open-source Quantum ESPRESSO suite
     for quantum simulation of materials; please cite
         "P. Giannozzi et al., J. Phys.:Condens. Matter 21 395502 (2009);
         "P. Giannozzi et al., J. Phys.:Condens. Matter 29 465901 (2017);
          URL http://www.quantum-espresso.org", 
     in publications or presentations arising from this work. More details at
     http://www.quantum-espresso.org/quote

     Parallel version (MPI), running on     2 processors

     MPI processes distributed on     1 nodes
     R & G space division:  proc/nbgrp/npool/nimage =       2
     Reading input from Conv_acell-kp.in

     Current dimensions of program PWSCF are:
     Max number of different atomic species (ntypx) = 10
     Max number of k-points (npk) =  40000
     Max angular momentum in pseudopotentials (lmaxx) =  3

     Subspace diagonalization in iterative solution of the eigenvalue problem:
     a serial algorithm will be used

 
     Parallelization info
     --------------------
     sticks:   dense  smooth     PW     G-vecs:    dense   smooth      PW
     Min         332     332    110                 4313     4313     791
     Max         333     333    111                 4314     4314     792
     Sum         665     665    221                 8627     8627    1583
 


     bravais-lattice index     =            6
     lattice parameter (alat)  =       9.1100  a.u.
     unit-cell volume          =     506.5589 (a.u.)^3
     number of atoms/cell      =            6
     number of atomic types    =            2
     number of electrons       =        52.00
     number of Kohn-Sham states=           26
     kinetic-energy cutoff     =      25.0000  Ry
     charge density cutoff     =     100.0000  Ry
     convergence threshold     =      1.0E-12
     mixing beta               =       0.7000
     number of iterations used =            8  plain     mixing
     Exchange-correlation      = PBE ( 1  4  3  4 0 0)
     nstep                     =           50


     celldm(1)=   9.110000  celldm(2)=   0.000000  celldm(3)=   0.670000
     celldm(4)=   0.000000  celldm(5)=   0.000000  celldm(6)=   0.000000

     crystal axes: (cart. coord. in units of alat)
               a(1) = (   1.000000   0.000000   0.000000 )  
               a(2) = (   0.000000   1.000000   0.000000 )  
               a(3) = (   0.000000   0.000000   0.670000 )  

     reciprocal axes: (cart. coord. in units 2 pi/alat)
               b(1) = (  1.000000  0.000000  0.000000 )  
               b(2) = (  0.000000  1.000000  0.000000 )  
               b(3) = (  0.000000  0.000000  1.492537 )  


     PseudoPot. # 1 for Sn read from file:
     ../../Pseudo_potentials/Sn_PBE.upf
     MD5 check sum: 78e6386ae56e929f0568ae8bf606a80c
     Pseudo is Norm-conserving + core correction, Zval = 14.0
     Generated using ONCVPSP code by D. R. Hamann
     Using radial grid of 1628 points,  6 beta functions with: 
                l(1) =   0
                l(2) =   0
                l(3) =   1
                l(4) =   1
                l(5) =   2
                l(6) =   2

     PseudoPot. # 2 for O  read from file:
     ../../Pseudo_potentials/O_PBE.upf
     MD5 check sum: 3e3f909f7470e8921608ab6b1f57bbae
     Pseudo is Norm-conserving + core correction, Zval =  6.0
     Generated using ONCVPSP code by D. R. Hamann
     Using radial grid of  936 points,  5 beta functions with: 
                l(1) =   0
                l(2) =   0
                l(3) =   1
                l(4) =   1
                l(5) =   2

     atomic species   valence    mass     pseudopotential
        Sn            14.00   118.71000     Sn( 1.00)
        O              6.00    15.99900     O ( 1.00)

      4 Sym. Ops. (no inversion) found



   Cartesian axes

     site n.     atom                  positions (alat units)
         1           Sn  tau(   1) = (   0.0000000   0.0000000   0.0000000  )
         2           Sn  tau(   2) = (   0.5000000   0.5000000   0.3350000  )
         3           O   tau(   3) = (   0.8060000   0.1930000   0.3350000  )
         4           O   tau(   4) = (   0.1930000   0.8060000   0.3350000  )
         5           O   tau(   5) = (   0.3060000   0.3060000   0.0000000  )
         6           O   tau(   6) = (   0.6930000   0.6930000   0.0000000  )

     number of k points=   910

     Number of k-points >= 100: set verbosity='high' to print them.

     Dense  grid:     8627 G-vectors     FFT dimensions: (  30,  30,  20)

     Estimated max dynamical RAM per process >     203.14 MB

     Estimated total dynamical RAM >     406.28 MB

     Check: negative/imaginary core charge=   -0.002394    0.000000

     Initial potential from superposition of free atoms
     Check: negative starting charge=   -0.009566

     starting charge   51.99690, renormalised to   52.00000

     negative rho (up, down):  9.566E-03 0.000E+00
     Starting wfc are   34 randomized atomic wfcs

     total cpu time spent up to now is       25.7 secs

     Self-consistent Calculation

     iteration #  1     ecut=    25.00 Ry     beta= 0.70
     Davidson diagonalization with overlap
     ethr =  1.00E-02,  avg # of iterations =  2.0

     negative rho (up, down):  2.854E-03 0.000E+00

     total cpu time spent up to now is      100.0 secs

     total energy              =    -429.62847237 Ry
     Harris-Foulkes estimate   =    -432.65817166 Ry
     estimated scf accuracy    <       4.17095337 Ry

     iteration #  2     ecut=    25.00 Ry     beta= 0.70
     Davidson diagonalization with overlap
     ethr =  8.02E-03,  avg # of iterations =  2.0

     negative rho (up, down):  8.828E-04 0.000E+00

     total cpu time spent up to now is      165.7 secs

     total energy              =    -430.40358656 Ry
     Harris-Foulkes estimate   =    -430.54442579 Ry
     estimated scf accuracy    <       0.24964211 Ry

     iteration #  3     ecut=    25.00 Ry     beta= 0.70
     Davidson diagonalization with overlap
     ethr =  4.80E-04,  avg # of iterations =  2.8

     negative rho (up, down):  1.589E-04 0.000E+00

     total cpu time spent up to now is      237.8 secs

     total energy              =    -430.44963948 Ry
     Harris-Foulkes estimate   =    -430.46337616 Ry
     estimated scf accuracy    <       0.02951688 Ry

     iteration #  4     ecut=    25.00 Ry     beta= 0.70
     Davidson diagonalization with overlap
     ethr =  5.68E-05,  avg # of iterations =  2.8

     total cpu time spent up to now is      308.4 secs

     total energy              =    -430.45499534 Ry
     Harris-Foulkes estimate   =    -430.45680989 Ry
     estimated scf accuracy    <       0.00354498 Ry

     iteration #  5     ecut=    25.00 Ry     beta= 0.70
     Davidson diagonalization with overlap
     ethr =  6.82E-06,  avg # of iterations =  3.0

     total cpu time spent up to now is      381.4 secs

     total energy              =    -430.45582844 Ry
     Harris-Foulkes estimate   =    -430.45591400 Ry
     estimated scf accuracy    <       0.00017498 Ry

     iteration #  6     ecut=    25.00 Ry     beta= 0.70
     Davidson diagonalization with overlap
     ethr =  3.36E-07,  avg # of iterations =  3.1

     total cpu time spent up to now is      454.5 secs

     total energy              =    -430.45588659 Ry
     Harris-Foulkes estimate   =    -430.45589158 Ry
     estimated scf accuracy    <       0.00001134 Ry

     iteration #  7     ecut=    25.00 Ry     beta= 0.70
     Davidson diagonalization with overlap
     ethr =  2.18E-08,  avg # of iterations =  3.2

     total cpu time spent up to now is      525.3 secs

     total energy              =    -430.45588783 Ry
     Harris-Foulkes estimate   =    -430.45588914 Ry
     estimated scf accuracy    <       0.00000324 Ry

     iteration #  8     ecut=    25.00 Ry     beta= 0.70
     Davidson diagonalization with overlap
     ethr =  6.24E-09,  avg # of iterations =  2.9

     total cpu time spent up to now is      592.4 secs

     total energy              =    -430.45588832 Ry
     Harris-Foulkes estimate   =    -430.45588835 Ry
     estimated scf accuracy    <       0.00000006 Ry

     iteration #  9     ecut=    25.00 Ry     beta= 0.70
     Davidson diagonalization with overlap
     ethr =  1.18E-10,  avg # of iterations =  3.1

     total cpu time spent up to now is      676.2 secs

     total energy              =    -430.45588835 Ry
     Harris-Foulkes estimate   =    -430.45588835 Ry
     estimated scf accuracy    <       0.00000002 Ry

     iteration # 10     ecut=    25.00 Ry     beta= 0.70
     Davidson diagonalization with overlap
     ethr =  3.04E-11,  avg # of iterations =  3.0

     total cpu time spent up to now is      743.1 secs

     total energy              =    -430.45588835 Ry
     Harris-Foulkes estimate   =    -430.45588835 Ry
     estimated scf accuracy    <          3.7E-09 Ry

     iteration # 11     ecut=    25.00 Ry     beta= 0.70
     Davidson diagonalization with overlap
     ethr =  7.10E-12,  avg # of iterations =  3.0

     total cpu time spent up to now is      815.4 secs

     total energy              =    -430.45588835 Ry
     Harris-Foulkes estimate   =    -430.45588835 Ry
     estimated scf accuracy    <          1.1E-10 Ry

     iteration # 12     ecut=    25.00 Ry     beta= 0.70
     Davidson diagonalization with overlap
     ethr =  2.12E-13,  avg # of iterations =  3.0

     total cpu time spent up to now is      886.5 secs

     total energy              =    -430.45588835 Ry
     Harris-Foulkes estimate   =    -430.45588835 Ry
     estimated scf accuracy    <          6.5E-12 Ry

     iteration # 13     ecut=    25.00 Ry     beta= 0.70
     Davidson diagonalization with overlap
     ethr =  1.00E-13,  avg # of iterations =  1.5

     total cpu time spent up to now is      939.2 secs

     End of self-consistent calculation

     Number of k-points >= 100: set verbosity='high' to print the bands.

     highest occupied level (ev):     9.8224

!    total energy              =    -430.45588835 Ry
     Harris-Foulkes estimate   =    -430.45588835 Ry
     estimated scf accuracy    <          1.1E-13 Ry

     The total energy is the sum of the following terms:

     one-electron contribution =     -96.65049031 Ry
     hartree contribution      =      85.51308352 Ry
     xc contribution           =    -116.83714323 Ry
     ewald contribution        =    -302.48133834 Ry

     convergence has been achieved in  13 iterations

     Forces acting on atoms (cartesian axes, Ry/au):

     atom    1 type  1   force =     0.00043461    0.00043461    0.00000000
     atom    2 type  1   force =    -0.00003662   -0.00003662    0.00000000
     atom    3 type  2   force =     0.01404498   -0.01356027    0.00000000
     atom    4 type  2   force =    -0.01356027    0.01404498    0.00000000
     atom    5 type  2   force =     0.01337636    0.01337636    0.00000000
     atom    6 type  2   force =    -0.01425906   -0.01425906    0.00000000

     Total force =     0.039079     Total SCF correction =     0.000002


     Computing stress (Cartesian axis) and pressure

          total   stress  (Ry/bohr**3)                   (kbar)     P=-9550.98
  -0.06527445   0.00000027   0.00000000      -9602.20      0.04      0.00
   0.00000027  -0.06527445   0.00000000          0.04  -9602.20      0.00
  -0.00000000   0.00000000  -0.06422977         -0.00      0.00  -9448.52


     BFGS Geometry Optimization

     number of scf cycles    =   1
     number of bfgs steps    =   0

     enthalpy new            =    -430.4558883467 Ry

     new trust radius        =       0.5000000000 bohr
     new conv_thr            =            1.0E-12 Ry

     new unit-cell volume =    356.52475 a.u.^3 (    52.83152 Ang^3 )
     density =      9.47376 g/cm^3

CELL_PARAMETERS (alat=  9.11000000)
   0.888922769   0.000000000   0.000000000
   0.000000000   0.888922769   0.000000000
   0.000000000   0.000000000   0.596769327

ATOMIC_POSITIONS (crystal)
Sn       0.000003247   0.000003247   0.000000000
Sn       0.499999726   0.499999726   0.500000000
O        0.806104941   0.192898681   0.500000000
O        0.192898681   0.806104941   0.500000000
O        0.306099945   0.306099945   0.000000000
O        0.692893460   0.692893460   0.000000000



     Writing output data file SnO2.save
     Check: negative starting charge=   -0.009566
     NEW-OLD atomic charge density approx. for the potential

     Check: negative/imaginary core charge=   -0.001408    0.000000
     Check: negative starting charge=   -0.001844

     negative rho (up, down):  1.259E+00 0.000E+00
     extrapolated charge   30.11846, renormalised to   52.00000

     total cpu time spent up to now is      959.5 secs

     Self-consistent Calculation

     iteration #  1     ecut=    25.00 Ry     beta= 0.70
     Davidson diagonalization with overlap
     c_bands:  1 eigenvalues not converged
     ethr =  1.00E-06,  avg # of iterations = 12.3

     total cpu time spent up to now is     1190.7 secs

     total energy              =    -402.05498530 Ry
     Harris-Foulkes estimate   =    -475.66167959 Ry
     estimated scf accuracy    <      58.33067749 Ry

     iteration #  2     ecut=    25.00 Ry     beta= 0.70
     Davidson diagonalization with overlap
     ethr =  1.00E-02,  avg # of iterations =  5.4

     total cpu time spent up to now is     1305.8 secs

     total energy              =    -436.52559916 Ry
     Harris-Foulkes estimate   =    -447.73327788 Ry
     estimated scf accuracy    <      17.35067191 Ry

     iteration #  3     ecut=    25.00 Ry     beta= 0.70
     Davidson diagonalization with overlap
     ethr =  1.00E-02,  avg # of iterations =  2.6

     total cpu time spent up to now is     1383.6 secs

     total energy              =    -439.52848223 Ry
     Harris-Foulkes estimate   =    -439.89979385 Ry
     estimated scf accuracy    <       0.69721066 Ry

     iteration #  4     ecut=    25.00 Ry     beta= 0.70
     Davidson diagonalization with overlap
     ethr =  1.34E-03,  avg # of iterations =  1.9

     total cpu time spent up to now is     1439.5 secs

     total energy              =    -439.47196518 Ry
     Harris-Foulkes estimate   =    -439.57555364 Ry
     estimated scf accuracy    <       0.16563507 Ry

     iteration #  5     ecut=    25.00 Ry     beta= 0.70
     Davidson diagonalization with overlap
     ethr =  3.19E-04,  avg # of iterations =  2.0

     negative rho (up, down):  1.135E-04 0.000E+00

     total cpu time spent up to now is     1502.3 secs

     total energy              =    -439.47137655 Ry
     Harris-Foulkes estimate   =    -439.48957250 Ry
     estimated scf accuracy    <       0.02433355 Ry

     iteration #  6     ecut=    25.00 Ry     beta= 0.70
     Davidson diagonalization with overlap
     ethr =  4.68E-05,  avg # of iterations =  2.0

     negative rho (up, down):  3.781E-04 0.000E+00

     total cpu time spent up to now is     1574.8 secs

     total energy              =    -439.47545133 Ry
     Harris-Foulkes estimate   =    -439.47624360 Ry
     estimated scf accuracy    <       0.00148672 Ry

     iteration #  7     ecut=    25.00 Ry     beta= 0.70
     Davidson diagonalization with overlap
     ethr =  2.86E-06,  avg # of iterations =  2.1

     negative rho (up, down):  5.113E-05 0.000E+00

     total cpu time spent up to now is     1644.5 secs

     total energy              =    -439.47655966 Ry
     Harris-Foulkes estimate   =    -439.47661172 Ry
     estimated scf accuracy    <       0.00008790 Ry

     iteration #  8     ecut=    25.00 Ry     beta= 0.70
     Davidson diagonalization with overlap
     ethr =  1.69E-07,  avg # of iterations =  2.0

     total cpu time spent up to now is     1712.6 secs

     total energy              =    -439.47656897 Ry
     Harris-Foulkes estimate   =    -439.47657313 Ry
     estimated scf accuracy    <       0.00000717 Ry

     iteration #  9     ecut=    25.00 Ry     beta= 0.70
     Davidson diagonalization with overlap
     ethr =  1.38E-08,  avg # of iterations =  2.6

     total cpu time spent up to now is     1786.2 secs

     total energy              =    -439.47656997 Ry
     Harris-Foulkes estimate   =    -439.47657029 Ry
     estimated scf accuracy    <       0.00000057 Ry

     iteration # 10     ecut=    25.00 Ry     beta= 0.70
     Davidson diagonalization with overlap
     ethr =  1.09E-09,  avg # of iterations =  2.7

     total cpu time spent up to now is     1855.6 secs

     total energy              =    -439.47657007 Ry
     Harris-Foulkes estimate   =    -439.47657010 Ry
     estimated scf accuracy    <       0.00000005 Ry

     iteration # 11     ecut=    25.00 Ry     beta= 0.70
     Davidson diagonalization with overlap
     ethr =  1.02E-10,  avg # of iterations =  2.4

     total cpu time spent up to now is     1930.5 secs

     total energy              =    -439.47657008 Ry
     Harris-Foulkes estimate   =    -439.47657008 Ry
     estimated scf accuracy    <          1.1E-09 Ry

     iteration # 12     ecut=    25.00 Ry     beta= 0.70
     Davidson diagonalization with overlap
     ethr =  2.06E-12,  avg # of iterations =  2.9

     total cpu time spent up to now is     2007.4 secs

     total energy              =    -439.47657008 Ry
     Harris-Foulkes estimate   =    -439.47657008 Ry
     estimated scf accuracy    <          4.4E-11 Ry

     iteration # 13     ecut=    25.00 Ry     beta= 0.70
     Davidson diagonalization with overlap
     ethr =  1.00E-13,  avg # of iterations =  2.2

     total cpu time spent up to now is     2077.3 secs

     total energy              =    -439.47657008 Ry
     Harris-Foulkes estimate   =    -439.47657008 Ry
     estimated scf accuracy    <          3.3E-12 Ry

     iteration # 14     ecut=    25.00 Ry     beta= 0.70
     Davidson diagonalization with overlap
     ethr =  1.00E-13,  avg # of iterations =  1.0

     total cpu time spent up to now is     2129.4 secs

     End of self-consistent calculation

     Number of k-points >= 100: set verbosity='high' to print the bands.

     highest occupied level (ev):    16.0281

!    total energy              =    -439.47657008 Ry
     Harris-Foulkes estimate   =    -439.47657008 Ry
     estimated scf accuracy    <          1.8E-13 Ry

     The total energy is the sum of the following terms:

     one-electron contribution =     -56.67837521 Ry
     hartree contribution      =      78.93327621 Ry
     xc contribution           =    -121.62100517 Ry
     ewald contribution        =    -340.11046592 Ry

     convergence has been achieved in  14 iterations

     Forces acting on atoms (cartesian axes, Ry/au):

     atom    1 type  1   force =    -0.00332201   -0.00332201    0.00000000
     atom    2 type  1   force =    -0.00270006   -0.00270006    0.00000000
     atom    3 type  2   force =    -0.05018493    0.04935928    0.00000000
     atom    4 type  2   force =     0.04935928   -0.05018493    0.00000000
     atom    5 type  2   force =    -0.04634451   -0.04634451    0.00000000
     atom    6 type  2   force =     0.05319224    0.05319224    0.00000000

     Total force =     0.141070     Total SCF correction =     0.000002


     Computing stress (Cartesian axis) and pressure

          total   stress  (Ry/bohr**3)                   (kbar)     P=-7230.75
  -0.05021474   0.00000034   0.00000000      -7386.84      0.05      0.00
   0.00000034  -0.05021474   0.00000000          0.05  -7386.84      0.00
   0.00000000  -0.00000000  -0.04703155          0.00     -0.00  -6918.58


     number of scf cycles    =   2
     number of bfgs steps    =   1

     enthalpy old            =    -430.4558883467 Ry
     enthalpy new            =    -439.4765700825 Ry

     CASE: enthalpy_new < enthalpy_old

     new trust radius        =       0.7078269737 bohr
     new conv_thr            =            1.0E-12 Ry

     new unit-cell volume =    217.66435 a.u.^3 (    32.25453 Ang^3 )
     density =     15.51760 g/cm^3

CELL_PARAMETERS (alat=  9.11000000)
   0.722306921   0.000000000   0.000000000
   0.000000000   0.722306921   0.000000000
   0.000000000   0.000000000   0.551808806

ATOMIC_POSITIONS (crystal)
Sn      -0.000690555  -0.000690555   0.000000000
Sn       0.499483011   0.499483011   0.500000000
O        0.794718481   0.204067105   0.500000000
O        0.204067105   0.794718481   0.500000000
O        0.295535673   0.295535673   0.000000000
O        0.704886284   0.704886284   0.000000000



     Writing output data file SnO2.save
     Check: negative starting charge=   -0.001844
     NEW-OLD atomic charge density approx. for the potential

     Check: negative/imaginary core charge=   -0.000515    0.000000

     negative rho (up, down):  2.449E+00 0.000E+00
     extrapolated charge   18.82824, renormalised to   52.00000

     total cpu time spent up to now is     2150.2 secs

     Self-consistent Calculation

     iteration #  1     ecut=    25.00 Ry     beta= 0.70
     Davidson diagonalization with overlap
     ethr =  1.00E-06,  avg # of iterations = 11.0

     total cpu time spent up to now is     2393.4 secs

     total energy              =    -392.73503598 Ry
     Harris-Foulkes estimate   =    -483.45616937 Ry
     estimated scf accuracy    <     130.61462660 Ry

     iteration #  2     ecut=    25.00 Ry     beta= 0.70
     Davidson diagonalization with overlap
     ethr =  1.00E-02,  avg # of iterations =  5.0

     total cpu time spent up to now is     2514.6 secs

     total energy              =    -437.81612676 Ry
     Harris-Foulkes estimate   =    -448.31540956 Ry
     estimated scf accuracy    <      15.22774755 Ry

     iteration #  3     ecut=    25.00 Ry     beta= 0.70
     Davidson diagonalization with overlap
     ethr =  1.00E-02,  avg # of iterations =  2.9

     total cpu time spent up to now is     2597.2 secs

     total energy              =    -441.19865912 Ry
     Harris-Foulkes estimate   =    -441.36340768 Ry
     estimated scf accuracy    <       0.31665160 Ry

     iteration #  4     ecut=    25.00 Ry     beta= 0.70
     Davidson diagonalization with overlap
     ethr =  6.09E-04,  avg # of iterations =  2.0

     total cpu time spent up to now is     2662.8 secs

     total energy              =    -441.21205965 Ry
     Harris-Foulkes estimate   =    -441.23258117 Ry
     estimated scf accuracy    <       0.03598783 Ry

     iteration #  5     ecut=    25.00 Ry     beta= 0.70
     Davidson diagonalization with overlap
     ethr =  6.92E-05,  avg # of iterations =  2.0

     total cpu time spent up to now is     2723.2 secs

     total energy              =    -441.21404241 Ry
     Harris-Foulkes estimate   =    -441.21485346 Ry
     estimated scf accuracy    <       0.00153883 Ry

     iteration #  6     ecut=    25.00 Ry     beta= 0.70
     Davidson diagonalization with overlap
     ethr =  2.96E-06,  avg # of iterations =  2.0

     total cpu time spent up to now is     2790.9 secs

     total energy              =    -441.21424381 Ry
     Harris-Foulkes estimate   =    -441.21428006 Ry
     estimated scf accuracy    <       0.00006486 Ry

     iteration #  7     ecut=    25.00 Ry     beta= 0.70
     Davidson diagonalization with overlap
     ethr =  1.25E-07,  avg # of iterations =  3.0

     total cpu time spent up to now is     2869.4 secs

     total energy              =    -441.21425992 Ry
     Harris-Foulkes estimate   =    -441.21426199 Ry
     estimated scf accuracy    <       0.00000468 Ry

     iteration #  8     ecut=    25.00 Ry     beta= 0.70
     Davidson diagonalization with overlap
     ethr =  9.01E-09,  avg # of iterations =  2.0

     total cpu time spent up to now is     2935.6 secs

     total energy              =    -441.21426063 Ry
     Harris-Foulkes estimate   =    -441.21426083 Ry
     estimated scf accuracy    <       0.00000036 Ry

     iteration #  9     ecut=    25.00 Ry     beta= 0.70
     Davidson diagonalization with overlap
     ethr =  6.90E-10,  avg # of iterations =  2.4

     total cpu time spent up to now is     3004.0 secs

     total energy              =    -441.21426069 Ry
     Harris-Foulkes estimate   =    -441.21426070 Ry
     estimated scf accuracy    <       0.00000003 Ry

     iteration # 10     ecut=    25.00 Ry     beta= 0.70
     Davidson diagonalization with overlap
     ethr =  5.79E-11,  avg # of iterations =  2.1

     total cpu time spent up to now is     3075.8 secs

     total energy              =    -441.21426069 Ry
     Harris-Foulkes estimate   =    -441.21426069 Ry
     estimated scf accuracy    <          6.6E-10 Ry

     iteration # 11     ecut=    25.00 Ry     beta= 0.70
     Davidson diagonalization with overlap
     ethr =  1.28E-12,  avg # of iterations =  2.1

     total cpu time spent up to now is     3151.1 secs

     total energy              =    -441.21426069 Ry
     Harris-Foulkes estimate   =    -441.21426069 Ry
     estimated scf accuracy    <          4.6E-11 Ry

     iteration # 12     ecut=    25.00 Ry     beta= 0.70
     Davidson diagonalization with overlap
     ethr =  1.00E-13,  avg # of iterations =  2.0

     total cpu time spent up to now is     3223.0 secs

     total energy              =    -441.21426069 Ry
     Harris-Foulkes estimate   =    -441.21426069 Ry
     estimated scf accuracy    <          3.5E-12 Ry

     iteration # 13     ecut=    25.00 Ry     beta= 0.70
     Davidson diagonalization with overlap
     ethr =  1.00E-13,  avg # of iterations =  1.0

     total cpu time spent up to now is     3275.3 secs

     End of self-consistent calculation

     Number of k-points >= 100: set verbosity='high' to print the bands.

     highest occupied level (ev):    31.4542

!    total energy              =    -441.21426069 Ry
     Harris-Foulkes estimate   =    -441.21426069 Ry
     estimated scf accuracy    <          5.5E-14 Ry

     The total energy is the sum of the following terms:

     one-electron contribution =      29.81236927 Ry
     hartree contribution      =      61.37560103 Ry
     xc contribution           =    -127.50521153 Ry
     ewald contribution        =    -404.89701946 Ry

     convergence has been achieved in  13 iterations

     Forces acting on atoms (cartesian axes, Ry/au):

     atom    1 type  1   force =     0.05535768    0.05535768    0.00000000
     atom    2 type  1   force =     0.00845160    0.00845160    0.00000000
     atom    3 type  2   force =     0.65179487   -0.64767629    0.00000000
     atom    4 type  2   force =    -0.64767629    0.65179487    0.00000000
     atom    5 type  2   force =     0.61610408    0.61610408    0.00000000
     atom    6 type  2   force =    -0.68403195   -0.68403195    0.00000000

     Total force =     1.841163     Total SCF correction =     0.000001


     Computing stress (Cartesian axis) and pressure

          total   stress  (Ry/bohr**3)                   (kbar)     P= 6175.52
   0.05469938   0.00000382   0.00000000       8046.55      0.56      0.00
   0.00000382   0.05469938   0.00000000          0.56   8046.55      0.00
   0.00000000   0.00000000   0.01654224          0.00      0.00   2433.45


     number of scf cycles    =   3
     number of bfgs steps    =   2

     enthalpy old            =    -439.4765700825 Ry
     enthalpy new            =    -441.2142606940 Ry

     CASE: enthalpy_new < enthalpy_old

     new trust radius        =       0.6978938125 bohr
     new conv_thr            =            1.0E-12 Ry

     new unit-cell volume =    232.07630 a.u.^3 (    34.39016 Ang^3 )
     density =     14.55396 g/cm^3

CELL_PARAMETERS (alat=  9.11000000)
   0.853580233   0.000000000   0.000000000
   0.000000000   0.853580233   0.000000000
   0.000000000   0.000000000   0.421295639

ATOMIC_POSITIONS (crystal)
Sn       0.001752724   0.001752724   0.000000000
Sn       0.499827235   0.499827235   0.500000000
O        0.823468509   0.175497739   0.500000000
O        0.175497739   0.823468509   0.500000000
O        0.322726425   0.322726425   0.000000000
O        0.674727368   0.674727368   0.000000000



     Writing output data file SnO2.save
     NEW-OLD atomic charge density approx. for the potential

     Check: negative/imaginary core charge=   -0.000777    0.000000
     extrapolated charge   55.22901, renormalised to   52.00000

     total cpu time spent up to now is     3296.0 secs

     Self-consistent Calculation

     iteration #  1     ecut=    25.00 Ry     beta= 0.70
     Davidson diagonalization with overlap
     ethr =  1.00E-06,  avg # of iterations =  8.4

     total cpu time spent up to now is     3498.2 secs

     total energy              =    -437.43030773 Ry
     Harris-Foulkes estimate   =    -432.92109681 Ry
     estimated scf accuracy    <       0.46548050 Ry

     iteration #  2     ecut=    25.00 Ry     beta= 0.70
     Davidson diagonalization with overlap
     ethr =  8.95E-04,  avg # of iterations =  2.8

     total cpu time spent up to now is     3578.7 secs

     total energy              =    -437.68825071 Ry
     Harris-Foulkes estimate   =    -437.81946342 Ry
     estimated scf accuracy    <       0.24097671 Ry

     iteration #  3     ecut=    25.00 Ry     beta= 0.70
     Davidson diagonalization with overlap
     ethr =  4.63E-04,  avg # of iterations =  2.0

     total cpu time spent up to now is     3647.0 secs

     total energy              =    -437.70990718 Ry
     Harris-Foulkes estimate   =    -437.71670754 Ry
     estimated scf accuracy    <       0.01426722 Ry

     iteration #  4     ecut=    25.00 Ry     beta= 0.70
     Davidson diagonalization with overlap
     ethr =  2.74E-05,  avg # of iterations =  2.1

     total cpu time spent up to now is     3721.9 secs

     total energy              =    -437.71235545 Ry
     Harris-Foulkes estimate   =    -437.71236195 Ry
     estimated scf accuracy    <       0.00022804 Ry

     iteration #  5     ecut=    25.00 Ry     beta= 0.70
     Davidson diagonalization with overlap
     ethr =  4.39E-07,  avg # of iterations =  2.3

     total cpu time spent up to now is     3793.6 secs

     total energy              =    -437.71238796 Ry
     Harris-Foulkes estimate   =    -437.71241258 Ry
     estimated scf accuracy    <       0.00004233 Ry

     iteration #  6     ecut=    25.00 Ry     beta= 0.70
     Davidson diagonalization with overlap
     ethr =  8.14E-08,  avg # of iterations =  2.0

     total cpu time spent up to now is     3864.4 secs

     total energy              =    -437.71239544 Ry
     Harris-Foulkes estimate   =    -437.71239604 Ry
     estimated scf accuracy    <       0.00000104 Ry

     iteration #  7     ecut=    25.00 Ry     beta= 0.70
     Davidson diagonalization with overlap
     ethr =  1.99E-09,  avg # of iterations =  2.1

     total cpu time spent up to now is     3939.9 secs

     total energy              =    -437.71239573 Ry
     Harris-Foulkes estimate   =    -437.71239575 Ry
     estimated scf accuracy    <       0.00000005 Ry

     iteration #  8     ecut=    25.00 Ry     beta= 0.70
     Davidson diagonalization with overlap
     ethr =  9.70E-11,  avg # of iterations =  2.1

     total cpu time spent up to now is     4014.9 secs

     total energy              =    -437.71239574 Ry
     Harris-Foulkes estimate   =    -437.71239574 Ry
     estimated scf accuracy    <       0.00000001 Ry

     iteration #  9     ecut=    25.00 Ry     beta= 0.70
     Davidson diagonalization with overlap
     ethr =  1.98E-11,  avg # of iterations =  2.1

     total cpu time spent up to now is     4083.8 secs

     total energy              =    -437.71239574 Ry
     Harris-Foulkes estimate   =    -437.71239574 Ry
     estimated scf accuracy    <          1.0E-09 Ry

     iteration # 10     ecut=    25.00 Ry     beta= 0.70
     Davidson diagonalization with overlap
     ethr =  2.00E-12,  avg # of iterations =  2.0

     total cpu time spent up to now is     4154.6 secs

     total energy              =    -437.71239574 Ry
     Harris-Foulkes estimate   =    -437.71239574 Ry
     estimated scf accuracy    <          5.0E-11 Ry

     iteration # 11     ecut=    25.00 Ry     beta= 0.70
     Davidson diagonalization with overlap
     ethr =  1.00E-13,  avg # of iterations =  2.0

     total cpu time spent up to now is     4227.6 secs

     End of self-consistent calculation

     Number of k-points >= 100: set verbosity='high' to print the bands.

     highest occupied level (ev):    30.1856

!    total energy              =    -437.71239574 Ry
     Harris-Foulkes estimate   =    -437.71239574 Ry
     estimated scf accuracy    <          9.2E-13 Ry

     The total energy is the sum of the following terms:

     one-electron contribution =     -35.24806415 Ry
     hartree contribution      =      88.65349545 Ry
     xc contribution           =    -127.68878511 Ry
     ewald contribution        =    -363.42904193 Ry

     convergence has been achieved in  11 iterations

     Forces acting on atoms (cartesian axes, Ry/au):

     atom    1 type  1   force =     0.02816821    0.02816821    0.00000000
     atom    2 type  1   force =    -0.06575644   -0.06575644    0.00000000
     atom    3 type  2   force =    -1.81784802    1.76563615    0.00000000
     atom    4 type  2   force =     1.76563615   -1.81784802    0.00000000
     atom    5 type  2   force =    -1.74792407   -1.74792407    0.00000000
     atom    6 type  2   force =     1.83772417    1.83772417    0.00000000

     Total force =     5.071416     Total SCF correction =     0.000003


     Computing stress (Cartesian axis) and pressure

          total   stress  (Ry/bohr**3)                   (kbar)     P= 5854.10
  -0.00017472   0.00002593   0.00000000        -25.70      3.81      0.00
   0.00002593  -0.00017472   0.00000000          3.81    -25.70      0.00
   0.00000000   0.00000000   0.11973550          0.00      0.00  17613.70


     number of scf cycles    =   4
     number of bfgs steps    =   3

     enthalpy old            =    -441.2142606940 Ry
     enthalpy new            =    -437.7123957384 Ry

     CASE: enthalpy_new > enthalpy_old

     new trust radius        =       0.2643633148 bohr
     new conv_thr            =            1.0E-12 Ry

     new unit-cell volume =    224.46334 a.u.^3 (    33.26203 Ang^3 )
     density =     15.04758 g/cm^3

CELL_PARAMETERS (alat=  9.11000000)
   0.759074487   0.000000000   0.000000000
   0.000000000   0.759074487   0.000000000
   0.000000000   0.000000000   0.515254144

ATOMIC_POSITIONS (crystal)
Sn      -0.000006231  -0.000006231   0.000000000
Sn       0.499579423   0.499579423   0.500000000
O        0.802770906   0.196065280   0.500000000
O        0.196065280   0.802770906   0.500000000
O        0.303151370   0.303151370   0.000000000
O        0.696439251   0.696439251   0.000000000



     Writing output data file SnO2.save
     NEW-OLD atomic charge density approx. for the potential

     Check: negative/imaginary core charge=   -0.000501    0.000000
     extrapolated charge   50.23646, renormalised to   52.00000

     total cpu time spent up to now is     4247.9 secs

     Self-consistent Calculation

     iteration #  1     ecut=    25.00 Ry     beta= 0.70
     Davidson diagonalization with overlap
     ethr =  1.00E-06,  avg # of iterations =  7.0

     total cpu time spent up to now is     4432.1 secs

     total energy              =    -441.69081133 Ry
     Harris-Foulkes estimate   =    -443.07192712 Ry
     estimated scf accuracy    <       0.24151742 Ry

     iteration #  2     ecut=    25.00 Ry     beta= 0.70
     Davidson diagonalization with overlap
     ethr =  4.64E-04,  avg # of iterations =  2.1

     total cpu time spent up to now is     4507.9 secs

     total energy              =    -441.81278099 Ry
     Harris-Foulkes estimate   =    -441.83926738 Ry
     estimated scf accuracy    <       0.05102820 Ry

     iteration #  3     ecut=    25.00 Ry     beta= 0.70
     Davidson diagonalization with overlap
     ethr =  9.81E-05,  avg # of iterations =  2.0

     total cpu time spent up to now is     4577.0 secs

     total energy              =    -441.81820733 Ry
     Harris-Foulkes estimate   =    -441.81889109 Ry
     estimated scf accuracy    <       0.00237826 Ry

     iteration #  4     ecut=    25.00 Ry     beta= 0.70
     Davidson diagonalization with overlap
     ethr =  4.57E-06,  avg # of iterations =  2.0

     total cpu time spent up to now is     4650.8 secs

     total energy              =    -441.81864355 Ry
     Harris-Foulkes estimate   =    -441.81865088 Ry
     estimated scf accuracy    <       0.00006460 Ry

     iteration #  5     ecut=    25.00 Ry     beta= 0.70
     Davidson diagonalization with overlap
     ethr =  1.24E-07,  avg # of iterations =  2.6

     total cpu time spent up to now is     4728.3 secs

     total energy              =    -441.81865292 Ry
     Harris-Foulkes estimate   =    -441.81866504 Ry
     estimated scf accuracy    <       0.00002351 Ry

     iteration #  6     ecut=    25.00 Ry     beta= 0.70
     Davidson diagonalization with overlap
     ethr =  4.52E-08,  avg # of iterations =  2.0

     total cpu time spent up to now is     4800.0 secs

     total energy              =    -441.81865781 Ry
     Harris-Foulkes estimate   =    -441.81865802 Ry
     estimated scf accuracy    <       0.00000053 Ry

     iteration #  7     ecut=    25.00 Ry     beta= 0.70
     Davidson diagonalization with overlap
     ethr =  1.02E-09,  avg # of iterations =  2.0

     total cpu time spent up to now is     4877.1 secs

     total energy              =    -441.81865795 Ry
     Harris-Foulkes estimate   =    -441.81865797 Ry
     estimated scf accuracy    <       0.00000003 Ry

     iteration #  8     ecut=    25.00 Ry     beta= 0.70
     Davidson diagonalization with overlap
     ethr =  5.11E-11,  avg # of iterations =  2.0

     total cpu time spent up to now is     4953.2 secs

     total energy              =    -441.81865796 Ry
     Harris-Foulkes estimate   =    -441.81865796 Ry
     estimated scf accuracy    <          2.5E-09 Ry

     iteration #  9     ecut=    25.00 Ry     beta= 0.70
     Davidson diagonalization with overlap
     ethr =  4.90E-12,  avg # of iterations =  2.5

     total cpu time spent up to now is     5023.2 secs

     total energy              =    -441.81865796 Ry
     Harris-Foulkes estimate   =    -441.81865796 Ry
     estimated scf accuracy    <          3.1E-10 Ry

     iteration # 10     ecut=    25.00 Ry     beta= 0.70
     Davidson diagonalization with overlap
     ethr =  5.95E-13,  avg # of iterations =  2.0

     total cpu time spent up to now is     5094.1 secs

     total energy              =    -441.81865796 Ry
     Harris-Foulkes estimate   =    -441.81865796 Ry
     estimated scf accuracy    <          9.8E-12 Ry

     iteration # 11     ecut=    25.00 Ry     beta= 0.70
     Davidson diagonalization with overlap
     ethr =  1.00E-13,  avg # of iterations =  1.6

     total cpu time spent up to now is     5148.8 secs

     End of self-consistent calculation

     Number of k-points >= 100: set verbosity='high' to print the bands.

     highest occupied level (ev):    29.6845

!    total energy              =    -441.81865796 Ry
     Harris-Foulkes estimate   =    -441.81865796 Ry
     estimated scf accuracy    <          3.0E-13 Ry

     The total energy is the sum of the following terms:

     one-electron contribution =      17.69096541 Ry
     hartree contribution      =      65.48319035 Ry
     xc contribution           =    -127.32500743 Ry
     ewald contribution        =    -397.66780629 Ry

     convergence has been achieved in  11 iterations

     Forces acting on atoms (cartesian axes, Ry/au):

     atom    1 type  1   force =    -0.00411228   -0.00411228    0.00000000
     atom    2 type  1   force =     0.00612866    0.00612866    0.00000000
     atom    3 type  2   force =    -0.08905329    0.08619547    0.00000000
     atom    4 type  2   force =     0.08619547   -0.08905329    0.00000000
     atom    5 type  2   force =    -0.08732849   -0.08732849    0.00000000
     atom    6 type  2   force =     0.08816993    0.08816993    0.00000000

     Total force =     0.248253     Total SCF correction =     0.000002


     Computing stress (Cartesian axis) and pressure

          total   stress  (Ry/bohr**3)                   (kbar)     P= 5227.33
   0.03204733  -0.00000038   0.00000000       4714.32     -0.06      0.00
  -0.00000038   0.03204733   0.00000000         -0.06   4714.32      0.00
   0.00000000   0.00000000   0.04250937          0.00      0.00   6253.34


     number of scf cycles    =   5
     number of bfgs steps    =   3

     enthalpy old            =    -441.2142606940 Ry
     enthalpy new            =    -441.8186579578 Ry

     CASE: enthalpy_new < enthalpy_old

     new trust radius        =       0.4943915290 bohr
     new conv_thr            =            1.0E-12 Ry

     new unit-cell volume =    308.71819 a.u.^3 (    45.74732 Ang^3 )
     density =     10.94082 g/cm^3

CELL_PARAMETERS (alat=  9.11000000)
   0.824766362   0.000000000   0.000000000
   0.000000000   0.824766362   0.000000000
   0.000000000   0.000000000   0.600268020

ATOMIC_POSITIONS (crystal)
Sn       0.000317019   0.000317019   0.000000000
Sn       0.500331536   0.500331536   0.500000000
O        0.804749357   0.193979074   0.500000000
O        0.193979074   0.804749357   0.500000000
O        0.304692929   0.304692929   0.000000000
O        0.693930084   0.693930084   0.000000000



     Writing output data file SnO2.save
     NEW-OLD atomic charge density approx. for the potential

     Check: negative/imaginary core charge=   -0.001121    0.000000
     Check: negative starting charge=   -0.000714

     negative rho (up, down):  9.644E-04 0.000E+00
     extrapolated charge   66.19091, renormalised to   52.00000

     total cpu time spent up to now is     5169.7 secs

     Self-consistent Calculation

     iteration #  1     ecut=    25.00 Ry     beta= 0.70
     Davidson diagonalization with overlap
     c_bands:  1 eigenvalues not converged
     c_bands:  1 eigenvalues not converged
     c_bands:  1 eigenvalues not converged
     c_bands:  1 eigenvalues not converged
     c_bands:  1 eigenvalues not converged
     c_bands:  1 eigenvalues not converged
     c_bands:  1 eigenvalues not converged
     c_bands:  1 eigenvalues not converged
     c_bands:  1 eigenvalues not converged
     c_bands:  1 eigenvalues not converged
     c_bands:  1 eigenvalues not converged
     c_bands:  1 eigenvalues not converged
     c_bands:  1 eigenvalues not converged
     c_bands:  1 eigenvalues not converged
     c_bands:  1 eigenvalues not converged
     c_bands:  1 eigenvalues not converged
     c_bands:  1 eigenvalues not converged
     c_bands:  1 eigenvalues not converged
     c_bands:  1 eigenvalues not converged
     ethr =  1.00E-06,  avg # of iterations = 13.0

     negative rho (up, down):  2.053E-04 0.000E+00

     total cpu time spent up to now is     5384.9 secs

     total energy              =    -429.65977925 Ry
     Harris-Foulkes estimate   =    -426.39524336 Ry
     estimated scf accuracy    <       6.62572203 Ry

     iteration #  2     ecut=    25.00 Ry     beta= 0.70
     Davidson diagonalization with overlap
     ethr =  1.00E-02,  avg # of iterations =  4.5

     negative rho (up, down):  9.654E-05 0.000E+00

     total cpu time spent up to now is     5497.6 secs

     total energy              =    -441.89658543 Ry
     Harris-Foulkes estimate   =    -445.58988838 Ry
     estimated scf accuracy    <       8.46599218 Ry

     iteration #  3     ecut=    25.00 Ry     beta= 0.70
     Davidson diagonalization with overlap
     ethr =  1.00E-02,  avg # of iterations =  2.0

     negative rho (up, down):  3.899E-05 0.000E+00

     total cpu time spent up to now is     5557.1 secs

     total energy              =    -441.66472778 Ry
     Harris-Foulkes estimate   =    -442.31709382 Ry
     estimated scf accuracy    <       1.96484530 Ry

     iteration #  4     ecut=    25.00 Ry     beta= 0.70
     Davidson diagonalization with overlap
     ethr =  3.78E-03,  avg # of iterations =  1.0

     total cpu time spent up to now is     5608.7 secs

     total energy              =    -441.38465343 Ry
     Harris-Foulkes estimate   =    -441.72124454 Ry
     estimated scf accuracy    <       0.79953796 Ry

     iteration #  5     ecut=    25.00 Ry     beta= 0.70
     Davidson diagonalization with overlap
     ethr =  1.54E-03,  avg # of iterations =  1.7

     total cpu time spent up to now is     5662.7 secs

     total energy              =    -441.31600119 Ry
     Harris-Foulkes estimate   =    -441.42745789 Ry
     estimated scf accuracy    <       0.17734463 Ry

     iteration #  6     ecut=    25.00 Ry     beta= 0.70
     Davidson diagonalization with overlap
     ethr =  3.41E-04,  avg # of iterations =  2.0

     total cpu time spent up to now is     5738.0 secs

     total energy              =    -441.35275777 Ry
     Harris-Foulkes estimate   =    -441.35319497 Ry
     estimated scf accuracy    <       0.00075462 Ry

     iteration #  7     ecut=    25.00 Ry     beta= 0.70
     Davidson diagonalization with overlap
     ethr =  1.45E-06,  avg # of iterations =  2.5

     total cpu time spent up to now is     5816.6 secs

     total energy              =    -441.35309690 Ry
     Harris-Foulkes estimate   =    -441.35316675 Ry
     estimated scf accuracy    <       0.00025836 Ry

     iteration #  8     ecut=    25.00 Ry     beta= 0.70
     Davidson diagonalization with overlap
     ethr =  4.97E-07,  avg # of iterations =  1.0

     total cpu time spent up to now is     5867.8 secs

     total energy              =    -441.35305076 Ry
     Harris-Foulkes estimate   =    -441.35310852 Ry
     estimated scf accuracy    <       0.00011068 Ry

     iteration #  9     ecut=    25.00 Ry     beta= 0.70
     Davidson diagonalization with overlap
     ethr =  2.13E-07,  avg # of iterations =  2.0

     total cpu time spent up to now is     5932.6 secs

     total energy              =    -441.35306004 Ry
     Harris-Foulkes estimate   =    -441.35306272 Ry
     estimated scf accuracy    <       0.00000580 Ry

     iteration # 10     ecut=    25.00 Ry     beta= 0.70
     Davidson diagonalization with overlap
     ethr =  1.12E-08,  avg # of iterations =  2.0

     total cpu time spent up to now is     6001.4 secs

     total energy              =    -441.35306090 Ry
     Harris-Foulkes estimate   =    -441.35306114 Ry
     estimated scf accuracy    <       0.00000043 Ry

     iteration # 11     ecut=    25.00 Ry     beta= 0.70
     Davidson diagonalization with overlap
     ethr =  8.22E-10,  avg # of iterations =  2.0

     total cpu time spent up to now is     6075.1 secs

     total energy              =    -441.35306096 Ry
     Harris-Foulkes estimate   =    -441.35306098 Ry
     estimated scf accuracy    <       0.00000005 Ry

     iteration # 12     ecut=    25.00 Ry     beta= 0.70
     Davidson diagonalization with overlap
     ethr =  8.99E-11,  avg # of iterations =  2.0

     total cpu time spent up to now is     6141.0 secs

     total energy              =    -441.35306097 Ry
     Harris-Foulkes estimate   =    -441.35306097 Ry
     estimated scf accuracy    <          3.8E-09 Ry

     iteration # 13     ecut=    25.00 Ry     beta= 0.70
     Davidson diagonalization with overlap
     ethr =  7.27E-12,  avg # of iterations =  2.0

     total cpu time spent up to now is     6206.3 secs

     total energy              =    -441.35306097 Ry
     Harris-Foulkes estimate   =    -441.35306097 Ry
     estimated scf accuracy    <          4.0E-10 Ry

     iteration # 14     ecut=    25.00 Ry     beta= 0.70
     Davidson diagonalization with overlap
     ethr =  7.73E-13,  avg # of iterations =  2.0

     total cpu time spent up to now is     6275.5 secs

     total energy              =    -441.35306097 Ry
     Harris-Foulkes estimate   =    -441.35306097 Ry
     estimated scf accuracy    <          3.5E-11 Ry

     iteration # 15     ecut=    25.00 Ry     beta= 0.70
     Davidson diagonalization with overlap
     ethr =  1.00E-13,  avg # of iterations =  2.0

     total cpu time spent up to now is     6339.2 secs

     total energy              =    -441.35306097 Ry
     Harris-Foulkes estimate   =    -441.35306097 Ry
     estimated scf accuracy    <          1.1E-12 Ry

     iteration # 16     ecut=    25.00 Ry     beta= 0.70
     Davidson diagonalization with overlap
     ethr =  1.00E-13,  avg # of iterations =  1.0

     total cpu time spent up to now is     6390.6 secs

     End of self-consistent calculation

     Number of k-points >= 100: set verbosity='high' to print the bands.

     highest occupied level (ev):    19.7225

!    total energy              =    -441.35306097 Ry
     Harris-Foulkes estimate   =    -441.35306097 Ry
     estimated scf accuracy    <          8.3E-14 Ry

     The total energy is the sum of the following terms:

     one-electron contribution =     -31.40599641 Ry
     hartree contribution      =      72.98060066 Ry
     xc contribution           =    -123.32112975 Ry
     ewald contribution        =    -359.60653546 Ry

     convergence has been achieved in  16 iterations

     Forces acting on atoms (cartesian axes, Ry/au):

     atom    1 type  1   force =    -0.01661118   -0.01661118    0.00000000
     atom    2 type  1   force =    -0.00367614   -0.00367614    0.00000000
     atom    3 type  2   force =     0.04853956   -0.05302576    0.00000000
     atom    4 type  2   force =    -0.05302576    0.04853956    0.00000000
     atom    5 type  2   force =     0.06338896    0.06338896    0.00000000
     atom    6 type  2   force =    -0.03861543   -0.03861543    0.00000000

     Total force =     0.148098     Total SCF correction =     0.000000


     Computing stress (Cartesian axis) and pressure

          total   stress  (Ry/bohr**3)                   (kbar)     P=-4900.26
  -0.02711362   0.00000280   0.00000000      -3988.55      0.41      0.00
   0.00000280  -0.02711362   0.00000000          0.41  -3988.55      0.00
   0.00000000   0.00000000  -0.04570655          0.00      0.00  -6723.66


     number of scf cycles    =   6
     number of bfgs steps    =   4

     enthalpy old            =    -441.8186579578 Ry
     enthalpy new            =    -441.3530609658 Ry

     CASE: enthalpy_new > enthalpy_old

     new trust radius        =       0.2134681298 bohr
     new conv_thr            =            1.0E-12 Ry

     new unit-cell volume =    258.52298 a.u.^3 (    38.30915 Ang^3 )
     density =     13.06510 g/cm^3

CELL_PARAMETERS (alat=  9.11000000)
   0.787251114   0.000000000   0.000000000
   0.000000000   0.787251114   0.000000000
   0.000000000   0.000000000   0.551718383

ATOMIC_POSITIONS (crystal)
Sn       0.000132418   0.000132418   0.000000000
Sn       0.499902020   0.499902020   0.500000000
O        0.803619506   0.195170463   0.500000000
O        0.195170463   0.803619506   0.500000000
O        0.303812577   0.303812577   0.000000000
O        0.695363017   0.695363017   0.000000000



     Writing output data file SnO2.save
     Check: negative starting charge=   -0.000714
     NEW-OLD atomic charge density approx. for the potential

     Check: negative/imaginary core charge=   -0.000750    0.000000
     extrapolated charge   41.90420, renormalised to   52.00000

     total cpu time spent up to now is     6411.0 secs

     Self-consistent Calculation

     iteration #  1     ecut=    25.00 Ry     beta= 0.70
     Davidson diagonalization with overlap
     ethr =  1.00E-06,  avg # of iterations =  6.0

     total cpu time spent up to now is     6567.7 secs

     total energy              =    -439.59479523 Ry
     Harris-Foulkes estimate   =    -450.82586219 Ry
     estimated scf accuracy    <       2.63615955 Ry

     iteration #  2     ecut=    25.00 Ry     beta= 0.70
     Davidson diagonalization with overlap
     ethr =  5.07E-03,  avg # of iterations =  3.0

     total cpu time spent up to now is     6652.3 secs

     total energy              =    -442.29244512 Ry
     Harris-Foulkes estimate   =    -443.04140204 Ry
     estimated scf accuracy    <       1.62726188 Ry

     iteration #  3     ecut=    25.00 Ry     beta= 0.70
     Davidson diagonalization with overlap
     ethr =  3.13E-03,  avg # of iterations =  2.0

     total cpu time spent up to now is     6716.3 secs

     total energy              =    -442.36348184 Ry
     Harris-Foulkes estimate   =    -442.44070340 Ry
     estimated scf accuracy    <       0.15856533 Ry

     iteration #  4     ecut=    25.00 Ry     beta= 0.70
     Davidson diagonalization with overlap
     ethr =  3.05E-04,  avg # of iterations =  2.0

     total cpu time spent up to now is     6781.6 secs

     total energy              =    -442.37231304 Ry
     Harris-Foulkes estimate   =    -442.38145013 Ry
     estimated scf accuracy    <       0.01437409 Ry

     iteration #  5     ecut=    25.00 Ry     beta= 0.70
     Davidson diagonalization with overlap
     ethr =  2.76E-05,  avg # of iterations =  2.3

     total cpu time spent up to now is     6858.8 secs

     total energy              =    -442.37662217 Ry
     Harris-Foulkes estimate   =    -442.37746994 Ry
     estimated scf accuracy    <       0.00162533 Ry

     iteration #  6     ecut=    25.00 Ry     beta= 0.70
     Davidson diagonalization with overlap
     ethr =  3.13E-06,  avg # of iterations =  2.0

     total cpu time spent up to now is     6925.8 secs

     total energy              =    -442.37681357 Ry
     Harris-Foulkes estimate   =    -442.37684285 Ry
     estimated scf accuracy    <       0.00005858 Ry

     iteration #  7     ecut=    25.00 Ry     beta= 0.70
     Davidson diagonalization with overlap
     ethr =  1.13E-07,  avg # of iterations =  2.0

     total cpu time spent up to now is     6999.1 secs

     total energy              =    -442.37682114 Ry
     Harris-Foulkes estimate   =    -442.37682250 Ry
     estimated scf accuracy    <       0.00000331 Ry

     iteration #  8     ecut=    25.00 Ry     beta= 0.70
     Davidson diagonalization with overlap
     ethr =  6.37E-09,  avg # of iterations =  2.0

     total cpu time spent up to now is     7064.5 secs

     total energy              =    -442.37682118 Ry
     Harris-Foulkes estimate   =    -442.37682147 Ry
     estimated scf accuracy    <       0.00000050 Ry

     iteration #  9     ecut=    25.00 Ry     beta= 0.70
     Davidson diagonalization with overlap
     ethr =  9.61E-10,  avg # of iterations =  2.0

     total cpu time spent up to now is     7138.9 secs

     total energy              =    -442.37682128 Ry
     Harris-Foulkes estimate   =    -442.37682128 Ry
     estimated scf accuracy    <          2.0E-09 Ry

     iteration # 10     ecut=    25.00 Ry     beta= 0.70
     Davidson diagonalization with overlap
     ethr =  3.81E-12,  avg # of iterations =  3.0

     total cpu time spent up to now is     7223.4 secs

     total energy              =    -442.37682128 Ry
     Harris-Foulkes estimate   =    -442.37682128 Ry
     estimated scf accuracy    <          3.8E-10 Ry

     iteration # 11     ecut=    25.00 Ry     beta= 0.70
     Davidson diagonalization with overlap
     ethr =  7.29E-13,  avg # of iterations =  2.0

     total cpu time spent up to now is     7296.1 secs

     total energy              =    -442.37682128 Ry
     Harris-Foulkes estimate   =    -442.37682128 Ry
     estimated scf accuracy    <          3.3E-12 Ry

     iteration # 12     ecut=    25.00 Ry     beta= 0.70
     Davidson diagonalization with overlap
     ethr =  1.00E-13,  avg # of iterations =  1.0

     total cpu time spent up to now is     7348.0 secs

     End of self-consistent calculation

     Number of k-points >= 100: set verbosity='high' to print the bands.

     highest occupied level (ev):    24.7819

!    total energy              =    -442.37682128 Ry
     Harris-Foulkes estimate   =    -442.37682128 Ry
     estimated scf accuracy    <          4.2E-13 Ry

     The total energy is the sum of the following terms:

     one-electron contribution =      -5.40447347 Ry
     hartree contribution      =      68.98548955 Ry
     xc contribution           =    -125.57414702 Ry
     ewald contribution        =    -380.38369034 Ry

     convergence has been achieved in  12 iterations

     Forces acting on atoms (cartesian axes, Ry/au):

     atom    1 type  1   force =    -0.01227415   -0.01227415    0.00000000
     atom    2 type  1   force =    -0.00128839   -0.00128839    0.00000000
     atom    3 type  2   force =     0.00129895   -0.00542458    0.00000000
     atom    4 type  2   force =    -0.00542458    0.00129895    0.00000000
     atom    5 type  2   force =     0.01225387    0.01225387    0.00000000
     atom    6 type  2   force =     0.00543430    0.00543430    0.00000000

     Total force =     0.026949     Total SCF correction =     0.000002


     Computing stress (Cartesian axis) and pressure

          total   stress  (Ry/bohr**3)                   (kbar)     P= -140.60
   0.00036451   0.00000110   0.00000000         53.62      0.16      0.00
   0.00000110   0.00036451   0.00000000          0.16     53.62      0.00
   0.00000000   0.00000000  -0.00359642          0.00      0.00   -529.05


     number of scf cycles    =   7
     number of bfgs steps    =   4

     enthalpy old            =    -441.8186579578 Ry
     enthalpy new            =    -442.3768212829 Ry

     CASE: enthalpy_new < enthalpy_old

     new trust radius        =       0.0496201515 bohr
     new conv_thr            =            1.0E-12 Ry

     new unit-cell volume =    258.12531 a.u.^3 (    38.25022 Ang^3 )
     density =     13.08523 g/cm^3

CELL_PARAMETERS (alat=  9.11000000)
   0.792785696   0.000000000   0.000000000
   0.000000000   0.792785696   0.000000000
   0.000000000   0.000000000   0.543205122

ATOMIC_POSITIONS (crystal)
Sn      -0.001121351  -0.001121351   0.000000000
Sn       0.499804329   0.499804329   0.500000000
O        0.800618845   0.197793992   0.500000000
O        0.197793992   0.800618845   0.500000000
O        0.301866629   0.301866629   0.000000000
O        0.699037556   0.699037556   0.000000000



     Writing output data file SnO2.save
     NEW-OLD atomic charge density approx. for the potential

     Check: negative/imaginary core charge=   -0.000740    0.000000
     extrapolated charge   51.91989, renormalised to   52.00000

     total cpu time spent up to now is     7368.7 secs

     Self-consistent Calculation

     iteration #  1     ecut=    25.00 Ry     beta= 0.70
     Davidson diagonalization with overlap
     ethr =  1.00E-06,  avg # of iterations =  5.0

     total cpu time spent up to now is     7497.2 secs

     total energy              =    -442.38156230 Ry
     Harris-Foulkes estimate   =    -442.45228964 Ry
     estimated scf accuracy    <       0.00156873 Ry

     iteration #  2     ecut=    25.00 Ry     beta= 0.70
     Davidson diagonalization with overlap
     ethr =  3.02E-06,  avg # of iterations =  2.0

     total cpu time spent up to now is     7572.5 secs

     total energy              =    -442.38195806 Ry
     Harris-Foulkes estimate   =    -442.38203404 Ry
     estimated scf accuracy    <       0.00018833 Ry

     iteration #  3     ecut=    25.00 Ry     beta= 0.70
     Davidson diagonalization with overlap
     ethr =  3.62E-07,  avg # of iterations =  2.0

     total cpu time spent up to now is     7641.4 secs

     total energy              =    -442.38199066 Ry
     Harris-Foulkes estimate   =    -442.38199002 Ry
     estimated scf accuracy    <       0.00000982 Ry

     iteration #  4     ecut=    25.00 Ry     beta= 0.70
     Davidson diagonalization with overlap
     ethr =  1.89E-08,  avg # of iterations =  2.0

     total cpu time spent up to now is     7714.9 secs

     total energy              =    -442.38199233 Ry
     Harris-Foulkes estimate   =    -442.38199305 Ry
     estimated scf accuracy    <       0.00000159 Ry

     iteration #  5     ecut=    25.00 Ry     beta= 0.70
     Davidson diagonalization with overlap
     ethr =  3.06E-09,  avg # of iterations =  2.3

     total cpu time spent up to now is     7789.5 secs

     total energy              =    -442.38199273 Ry
     Harris-Foulkes estimate   =    -442.38199283 Ry
     estimated scf accuracy    <       0.00000022 Ry

     iteration #  6     ecut=    25.00 Ry     beta= 0.70
     Davidson diagonalization with overlap
     ethr =  4.31E-10,  avg # of iterations =  2.1

     total cpu time spent up to now is     7861.3 secs

     total energy              =    -442.38199279 Ry
     Harris-Foulkes estimate   =    -442.38199279 Ry
     estimated scf accuracy    <       0.00000001 Ry

     iteration #  7     ecut=    25.00 Ry     beta= 0.70
     Davidson diagonalization with overlap
     ethr =  2.54E-11,  avg # of iterations =  2.0

     total cpu time spent up to now is     7930.5 secs

     total energy              =    -442.38199279 Ry
     Harris-Foulkes estimate   =    -442.38199279 Ry
     estimated scf accuracy    <          1.2E-10 Ry

     iteration #  8     ecut=    25.00 Ry     beta= 0.70
     Davidson diagonalization with overlap
     ethr =  2.40E-13,  avg # of iterations =  2.4

     total cpu time spent up to now is     8010.1 secs

     total energy              =    -442.38199279 Ry
     Harris-Foulkes estimate   =    -442.38199279 Ry
     estimated scf accuracy    <          9.7E-12 Ry

     iteration #  9     ecut=    25.00 Ry     beta= 0.70
     Davidson diagonalization with overlap
     ethr =  1.00E-13,  avg # of iterations =  1.9

     total cpu time spent up to now is     8066.4 secs

     End of self-consistent calculation

     Number of k-points >= 100: set verbosity='high' to print the bands.

     highest occupied level (ev):    24.7254

!    total energy              =    -442.38199279 Ry
     Harris-Foulkes estimate   =    -442.38199279 Ry
     estimated scf accuracy    <          9.7E-13 Ry

     The total energy is the sum of the following terms:

     one-electron contribution =      -6.06206475 Ry
     hartree contribution      =      69.34794641 Ry
     xc contribution           =    -125.62071689 Ry
     ewald contribution        =    -380.04715757 Ry

     convergence has been achieved in   9 iterations

     Forces acting on atoms (cartesian axes, Ry/au):

     atom    1 type  1   force =     0.04490382    0.04490382    0.00000000
     atom    2 type  1   force =     0.00847891    0.00847891    0.00000000
     atom    3 type  2   force =     0.01114820   -0.00585314    0.00000000
     atom    4 type  2   force =    -0.00585314    0.01114820    0.00000000
     atom    5 type  2   force =    -0.02035691   -0.02035691    0.00000000
     atom    6 type  2   force =    -0.03832087   -0.03832087    0.00000000

     Total force =     0.090881     Total SCF correction =     0.000003


     Computing stress (Cartesian axis) and pressure

          total   stress  (Ry/bohr**3)                   (kbar)     P=  -26.41
  -0.00037632   0.00000677   0.00000000        -55.36      1.00      0.00
   0.00000677  -0.00037632   0.00000000          1.00    -55.36      0.00
   0.00000000   0.00000000   0.00021405          0.00      0.00     31.49


     number of scf cycles    =   8
     number of bfgs steps    =   5

     enthalpy old            =    -442.3768212829 Ry
     enthalpy new            =    -442.3819927903 Ry

     CASE: enthalpy_new < enthalpy_old

     new trust radius        =       0.0280942886 bohr
     new conv_thr            =            1.0E-12 Ry

     new unit-cell volume =    257.74494 a.u.^3 (    38.19386 Ang^3 )
     density =     13.10454 g/cm^3

CELL_PARAMETERS (alat=  9.11000000)
   0.792036039   0.000000000   0.000000000
   0.000000000   0.792036039   0.000000000
   0.000000000   0.000000000   0.543431911

ATOMIC_POSITIONS (crystal)
Sn       0.001629258   0.001629258   0.000000000
Sn       0.500341277   0.500341277   0.500000000
O        0.801110102   0.197591218   0.500000000
O        0.197591218   0.801110102   0.500000000
O        0.300457455   0.300457455   0.000000000
O        0.696870690   0.696870690   0.000000000



     Writing output data file SnO2.save
     NEW-OLD atomic charge density approx. for the potential

     Check: negative/imaginary core charge=   -0.000737    0.000000
     extrapolated charge   51.92326, renormalised to   52.00000

     total cpu time spent up to now is     8087.2 secs

     Self-consistent Calculation

     iteration #  1     ecut=    25.00 Ry     beta= 0.70
     Davidson diagonalization with overlap
     ethr =  1.00E-06,  avg # of iterations =  4.2

     total cpu time spent up to now is     8212.6 secs

     total energy              =    -442.38070688 Ry
     Harris-Foulkes estimate   =    -442.44791479 Ry
     estimated scf accuracy    <       0.00065121 Ry

     iteration #  2     ecut=    25.00 Ry     beta= 0.70
     Davidson diagonalization with overlap
     ethr =  1.25E-06,  avg # of iterations =  2.0

     total cpu time spent up to now is     8288.6 secs

     total energy              =    -442.38094590 Ry
     Harris-Foulkes estimate   =    -442.38101937 Ry
     estimated scf accuracy    <       0.00015548 Ry

     iteration #  3     ecut=    25.00 Ry     beta= 0.70
     Davidson diagonalization with overlap
     ethr =  2.99E-07,  avg # of iterations =  2.0

     total cpu time spent up to now is     8356.5 secs

     total energy              =    -442.38096946 Ry
     Harris-Foulkes estimate   =    -442.38097059 Ry
     estimated scf accuracy    <       0.00000867 Ry

     iteration #  4     ecut=    25.00 Ry     beta= 0.70
     Davidson diagonalization with overlap
     ethr =  1.67E-08,  avg # of iterations =  2.0

     total cpu time spent up to now is     8433.2 secs

     total energy              =    -442.38097106 Ry
     Harris-Foulkes estimate   =    -442.38097233 Ry
     estimated scf accuracy    <       0.00000240 Ry

     iteration #  5     ecut=    25.00 Ry     beta= 0.70
     Davidson diagonalization with overlap
     ethr =  4.62E-09,  avg # of iterations =  2.2

     total cpu time spent up to now is     8506.0 secs

     total energy              =    -442.38097166 Ry
     Harris-Foulkes estimate   =    -442.38097173 Ry
     estimated scf accuracy    <       0.00000017 Ry

     iteration #  6     ecut=    25.00 Ry     beta= 0.70
     Davidson diagonalization with overlap
     ethr =  3.26E-10,  avg # of iterations =  2.0

     total cpu time spent up to now is     8577.8 secs

     total energy              =    -442.38097169 Ry
     Harris-Foulkes estimate   =    -442.38097170 Ry
     estimated scf accuracy    <       0.00000001 Ry

     iteration #  7     ecut=    25.00 Ry     beta= 0.70
     Davidson diagonalization with overlap
     ethr =  1.94E-11,  avg # of iterations =  2.0

     total cpu time spent up to now is     8652.6 secs

     total energy              =    -442.38097170 Ry
     Harris-Foulkes estimate   =    -442.38097170 Ry
     estimated scf accuracy    <          2.3E-10 Ry

     iteration #  8     ecut=    25.00 Ry     beta= 0.70
     Davidson diagonalization with overlap
     ethr =  4.40E-13,  avg # of iterations =  2.7

     total cpu time spent up to now is     8729.2 secs

     total energy              =    -442.38097170 Ry
     Harris-Foulkes estimate   =    -442.38097170 Ry
     estimated scf accuracy    <          3.4E-11 Ry

     iteration #  9     ecut=    25.00 Ry     beta= 0.70
     Davidson diagonalization with overlap
     ethr =  1.00E-13,  avg # of iterations =  2.6

     total cpu time spent up to now is     8798.9 secs

     total energy              =    -442.38097170 Ry
     Harris-Foulkes estimate   =    -442.38097170 Ry
     estimated scf accuracy    <          2.9E-12 Ry

     iteration # 10     ecut=    25.00 Ry     beta= 0.70
     Davidson diagonalization with overlap
     ethr =  1.00E-13,  avg # of iterations =  1.0

     total cpu time spent up to now is     8850.8 secs

     End of self-consistent calculation

     Number of k-points >= 100: set verbosity='high' to print the bands.

     highest occupied level (ev):    24.7816

!    total energy              =    -442.38097170 Ry
     Harris-Foulkes estimate   =    -442.38097170 Ry
     estimated scf accuracy    <          1.0E-13 Ry

     The total energy is the sum of the following terms:

     one-electron contribution =      -5.79854802 Ry
     hartree contribution      =      69.30021250 Ry
     xc contribution           =    -125.63801306 Ry
     ewald contribution        =    -380.24462311 Ry

     convergence has been achieved in  10 iterations

     Forces acting on atoms (cartesian axes, Ry/au):

     atom    1 type  1   force =    -0.07593861   -0.07593861    0.00000000
     atom    2 type  1   force =    -0.01493742   -0.01493742    0.00000000
     atom    3 type  2   force =    -0.00432768   -0.01300485    0.00000000
     atom    4 type  2   force =    -0.01300485   -0.00432768    0.00000000
     atom    5 type  2   force =     0.05919122    0.05919122    0.00000000
     atom    6 type  2   force =     0.04901735    0.04901735    0.00000000

     Total force =     0.155460     Total SCF correction =     0.000001


     Computing stress (Cartesian axis) and pressure

          total   stress  (Ry/bohr**3)                   (kbar)     P=   19.72
  -0.00003754   0.00002170   0.00000000         -5.52      3.19      0.00
   0.00002170  -0.00003754  -0.00000000          3.19     -5.52     -0.00
   0.00000000  -0.00000000   0.00047716          0.00     -0.00     70.19


     number of scf cycles    =   9
     number of bfgs steps    =   6

     enthalpy old            =    -442.3819927903 Ry
     enthalpy new            =    -442.3809716968 Ry

     CASE: enthalpy_new > enthalpy_old

     new trust radius        =       0.0110408322 bohr
     new conv_thr            =            1.0E-12 Ry

     new unit-cell volume =    257.97568 a.u.^3 (    38.22805 Ang^3 )
     density =     13.09282 g/cm^3

CELL_PARAMETERS (alat=  9.11000000)
   0.792490808   0.000000000   0.000000000
   0.000000000   0.792490808   0.000000000
   0.000000000   0.000000000   0.543294332

ATOMIC_POSITIONS (crystal)
Sn      -0.000039361  -0.000039361   0.000000000
Sn       0.500015545   0.500015545   0.500000000
O        0.800812088   0.197714228   0.500000000
O        0.197714228   0.800812088   0.500000000
O        0.301312311   0.301312311   0.000000000
O        0.698185189   0.698185189   0.000000000



     Writing output data file SnO2.save
     NEW-OLD atomic charge density approx. for the potential

     Check: negative/imaginary core charge=   -0.000739    0.000000
     extrapolated charge   52.04651, renormalised to   52.00000

     total cpu time spent up to now is     8871.8 secs

     Self-consistent Calculation

     iteration #  1     ecut=    25.00 Ry     beta= 0.70
     Davidson diagonalization with overlap
     ethr =  1.00E-06,  avg # of iterations =  4.0

     total cpu time spent up to now is     8990.1 secs

     total energy              =    -442.38263197 Ry
     Harris-Foulkes estimate   =    -442.34215586 Ry
     estimated scf accuracy    <       0.00024298 Ry

     iteration #  2     ecut=    25.00 Ry     beta= 0.70
     Davidson diagonalization with overlap
     ethr =  4.67E-07,  avg # of iterations =  2.0

     total cpu time spent up to now is     9066.7 secs

     total energy              =    -442.38272175 Ry
     Harris-Foulkes estimate   =    -442.38274942 Ry
     estimated scf accuracy    <       0.00005819 Ry

     iteration #  3     ecut=    25.00 Ry     beta= 0.70
     Davidson diagonalization with overlap
     ethr =  1.12E-07,  avg # of iterations =  2.0

     total cpu time spent up to now is     9135.9 secs

     total energy              =    -442.38273052 Ry
     Harris-Foulkes estimate   =    -442.38273107 Ry
     estimated scf accuracy    <       0.00000339 Ry

     iteration #  4     ecut=    25.00 Ry     beta= 0.70
     Davidson diagonalization with overlap
     ethr =  6.52E-09,  avg # of iterations =  2.0

     total cpu time spent up to now is     9211.5 secs

     total energy              =    -442.38273116 Ry
     Harris-Foulkes estimate   =    -442.38273169 Ry
     estimated scf accuracy    <       0.00000100 Ry

     iteration #  5     ecut=    25.00 Ry     beta= 0.70
     Davidson diagonalization with overlap
     ethr =  1.92E-09,  avg # of iterations =  2.2

     total cpu time spent up to now is     9284.8 secs

     total energy              =    -442.38273141 Ry
     Harris-Foulkes estimate   =    -442.38273144 Ry
     estimated scf accuracy    <       0.00000006 Ry

     iteration #  6     ecut=    25.00 Ry     beta= 0.70
     Davidson diagonalization with overlap
     ethr =  1.16E-10,  avg # of iterations =  2.0

     total cpu time spent up to now is     9357.4 secs

     total energy              =    -442.38273142 Ry
     Harris-Foulkes estimate   =    -442.38273142 Ry
     estimated scf accuracy    <          3.7E-09 Ry

     iteration #  7     ecut=    25.00 Ry     beta= 0.70
     Davidson diagonalization with overlap
     ethr =  7.09E-12,  avg # of iterations =  2.0

     total cpu time spent up to now is     9432.6 secs

     total energy              =    -442.38273142 Ry
     Harris-Foulkes estimate   =    -442.38273142 Ry
     estimated scf accuracy    <          1.0E-10 Ry

     iteration #  8     ecut=    25.00 Ry     beta= 0.70
     Davidson diagonalization with overlap
     ethr =  1.94E-13,  avg # of iterations =  2.9

     total cpu time spent up to now is     9507.7 secs

     total energy              =    -442.38273142 Ry
     Harris-Foulkes estimate   =    -442.38273142 Ry
     estimated scf accuracy    <          1.6E-11 Ry

     iteration #  9     ecut=    25.00 Ry     beta= 0.70
     Davidson diagonalization with overlap
     ethr =  1.00E-13,  avg # of iterations =  2.0

     total cpu time spent up to now is     9568.4 secs

     End of self-consistent calculation

     Number of k-points >= 100: set verbosity='high' to print the bands.

     highest occupied level (ev):    24.7477

!    total energy              =    -442.38273142 Ry
     Harris-Foulkes estimate   =    -442.38273142 Ry
     estimated scf accuracy    <          9.4E-13 Ry

     The total energy is the sum of the following terms:

     one-electron contribution =      -5.94809550 Ry
     hartree contribution      =      69.32423171 Ry
     xc contribution           =    -125.62718023 Ry
     ewald contribution        =    -380.13168740 Ry

     convergence has been achieved in   9 iterations

     Forces acting on atoms (cartesian axes, Ry/au):

     atom    1 type  1   force =    -0.00274801   -0.00274801    0.00000000
     atom    2 type  1   force =    -0.00072488   -0.00072488    0.00000000
     atom    3 type  2   force =     0.00503334   -0.00861764    0.00000000
     atom    4 type  2   force =    -0.00861764    0.00503334    0.00000000
     atom    5 type  2   force =     0.00994728    0.00994728    0.00000000
     atom    6 type  2   force =    -0.00289009   -0.00289009    0.00000000

     Total force =     0.020735     Total SCF correction =     0.000002


     Computing stress (Cartesian axis) and pressure

          total   stress  (Ry/bohr**3)                   (kbar)     P=   -9.59
  -0.00025577  -0.00000187   0.00000000        -37.63     -0.27      0.00
  -0.00000187  -0.00025577   0.00000000         -0.27    -37.63      0.00
   0.00000000   0.00000000   0.00031598          0.00      0.00     46.48


     number of scf cycles    =  10
     number of bfgs steps    =   6

     enthalpy old            =    -442.3819927903 Ry
     enthalpy new            =    -442.3827314240 Ry

     CASE: enthalpy_new < enthalpy_old

     new trust radius        =       0.0117085353 bohr
     new conv_thr            =            1.0E-12 Ry

     new unit-cell volume =    257.74985 a.u.^3 (    38.19459 Ang^3 )
     density =     13.10429 g/cm^3

CELL_PARAMETERS (alat=  9.11000000)
   0.790706749   0.000000000   0.000000000
   0.000000000   0.790706749   0.000000000
   0.000000000   0.000000000   0.545271006

ATOMIC_POSITIONS (crystal)
Sn      -0.000042129  -0.000042129   0.000000000
Sn       0.499989716   0.499989716   0.500000000
O        0.801696217   0.196548782   0.500000000
O        0.196548782   0.801696217   0.500000000
O        0.302459077   0.302459077   0.000000000
O        0.697348336   0.697348336   0.000000000



     Writing output data file SnO2.save
     NEW-OLD atomic charge density approx. for the potential

     Check: negative/imaginary core charge=   -0.000739    0.000000
     extrapolated charge   51.95444, renormalised to   52.00000

     total cpu time spent up to now is     9589.3 secs

     Self-consistent Calculation

     iteration #  1     ecut=    25.00 Ry     beta= 0.70
     Davidson diagonalization with overlap
     ethr =  1.00E-06,  avg # of iterations =  4.0

     total cpu time spent up to now is     9702.7 secs

     total energy              =    -442.38294061 Ry
     Harris-Foulkes estimate   =    -442.42264270 Ry
     estimated scf accuracy    <       0.00021115 Ry

     iteration #  2     ecut=    25.00 Ry     beta= 0.70
     Davidson diagonalization with overlap
     ethr =  4.06E-07,  avg # of iterations =  2.0

     total cpu time spent up to now is     9779.6 secs

     total energy              =    -442.38303360 Ry
     Harris-Foulkes estimate   =    -442.38305782 Ry
     estimated scf accuracy    <       0.00004887 Ry

     iteration #  3     ecut=    25.00 Ry     beta= 0.70
     Davidson diagonalization with overlap
     ethr =  9.40E-08,  avg # of iterations =  2.0

     total cpu time spent up to now is     9845.7 secs

     total energy              =    -442.38303957 Ry
     Harris-Foulkes estimate   =    -442.38303995 Ry
     estimated scf accuracy    <       0.00000220 Ry

     iteration #  4     ecut=    25.00 Ry     beta= 0.70
     Davidson diagonalization with overlap
     ethr =  4.23E-09,  avg # of iterations =  2.0

     total cpu time spent up to now is     9920.6 secs

     total energy              =    -442.38303999 Ry
     Harris-Foulkes estimate   =    -442.38304008 Ry
     estimated scf accuracy    <       0.00000018 Ry

     iteration #  5     ecut=    25.00 Ry     beta= 0.70
     Davidson diagonalization with overlap
     ethr =  3.48E-10,  avg # of iterations =  2.0

     total cpu time spent up to now is     9995.8 secs

     total energy              =    -442.38304003 Ry
     Harris-Foulkes estimate   =    -442.38304004 Ry
     estimated scf accuracy    <       0.00000003 Ry

     iteration #  6     ecut=    25.00 Ry     beta= 0.70
     Davidson diagonalization with overlap
     ethr =  5.86E-11,  avg # of iterations =  2.0

     total cpu time spent up to now is    10070.3 secs

     total energy              =    -442.38304004 Ry
     Harris-Foulkes estimate   =    -442.38304004 Ry
     estimated scf accuracy    <          3.3E-09 Ry

     iteration #  7     ecut=    25.00 Ry     beta= 0.70
     Davidson diagonalization with overlap
     ethr =  6.31E-12,  avg # of iterations =  2.0

     total cpu time spent up to now is    10140.2 secs

     total energy              =    -442.38304004 Ry
     Harris-Foulkes estimate   =    -442.38304004 Ry
     estimated scf accuracy    <          5.5E-11 Ry

     iteration #  8     ecut=    25.00 Ry     beta= 0.70
     Davidson diagonalization with overlap
     ethr =  1.07E-13,  avg # of iterations =  2.0

     total cpu time spent up to now is    10216.4 secs

     total energy              =    -442.38304004 Ry
     Harris-Foulkes estimate   =    -442.38304004 Ry
     estimated scf accuracy    <          2.5E-12 Ry

     iteration #  9     ecut=    25.00 Ry     beta= 0.70
     Davidson diagonalization with overlap
[...]
     atom    6 type  2   force =     0.00002424    0.00002424    0.00000000

     Total force =     0.000339     Total SCF correction =     0.000003


     Computing stress (Cartesian axis) and pressure

          total   stress  (Ry/bohr**3)                   (kbar)     P=   -1.03
  -0.00000473   0.00716377   0.00000000         -0.70   1053.83      0.00
   0.00716377  -0.00000473   0.00000000       1053.83     -0.70      0.00
   0.00000000   0.00000000  -0.00001159          0.00      0.00     -1.70


     number of scf cycles    =  43
     number of bfgs steps    =  33

     enthalpy old            =    -442.6672508714 Ry
     enthalpy new            =    -442.6672508347 Ry

     CASE: enthalpy_new > enthalpy_old

     new trust radius        =       0.0000252791 bohr

     trust_radius < trust_radius_min

     resetting bfgs history

     Message from routine bfgs:
     history already reset at previous step: stopping
     new conv_thr            =            1.0E-12 Ry

     new unit-cell volume =    250.42576 a.u.^3 (    37.10927 Ang^3 )
     density =     13.48755 g/cm^3

CELL_PARAMETERS (alat=  9.11000000)
   0.780834363   0.000000000   0.000000000
   0.000000000   0.780834363   0.000000000
   0.000000000   0.000000000   0.543257878

ATOMIC_POSITIONS (crystal)
Sn       0.046621106   0.046621106   0.000000000
Sn       0.555521442   0.555521442   0.500000000
O        0.703247661   0.115756414   0.500000000
O        0.115756414   0.703247661   0.500000000
O        0.344115400   0.344115400   0.000000000
O        0.732737978   0.732737978   0.000000000



     Writing output data file SnO2.save
     NEW-OLD atomic charge density approx. for the potential

     Check: negative/imaginary core charge=   -0.000687    0.000000
     extrapolated charge   52.00185, renormalised to   52.00000

     total cpu time spent up to now is    35448.1 secs

     Self-consistent Calculation

     iteration #  1     ecut=    25.00 Ry     beta= 0.70
     Davidson diagonalization with overlap
     ethr =  1.00E-06,  avg # of iterations =  1.0

     Threshold (ethr) on eigenvalues was too large:
     Diagonalizing with lowered threshold

     Davidson diagonalization with overlap
     ethr =  1.48E-10,  avg # of iterations =  3.0

     total cpu time spent up to now is    35589.7 secs

     total energy              =    -442.66725053 Ry
     Harris-Foulkes estimate   =    -442.66614770 Ry
     estimated scf accuracy    <       0.00000009 Ry

     iteration #  2     ecut=    25.00 Ry     beta= 0.70
     Davidson diagonalization with overlap
     ethr =  1.64E-10,  avg # of iterations =  3.2

     total cpu time spent up to now is    35683.7 secs

     total energy              =    -442.66725064 Ry
     Harris-Foulkes estimate   =    -442.66725069 Ry
     estimated scf accuracy    <       0.00000012 Ry

     iteration #  3     ecut=    25.00 Ry     beta= 0.70
     Davidson diagonalization with overlap
     ethr =  1.64E-10,  avg # of iterations =  2.0

     total cpu time spent up to now is    35748.5 secs

     total energy              =    -442.66725065 Ry
     Harris-Foulkes estimate   =    -442.66725065 Ry
     estimated scf accuracy    <       0.00000002 Ry

     iteration #  4     ecut=    25.00 Ry     beta= 0.70
     Davidson diagonalization with overlap
     ethr =  2.96E-11,  avg # of iterations =  1.1

     total cpu time spent up to now is    35800.5 secs

     total energy              =    -442.66725064 Ry
     Harris-Foulkes estimate   =    -442.66725065 Ry
     estimated scf accuracy    <          6.3E-09 Ry

     iteration #  5     ecut=    25.00 Ry     beta= 0.70
     Davidson diagonalization with overlap
     ethr =  1.22E-11,  avg # of iterations =  2.0

     total cpu time spent up to now is    35874.3 secs

     total energy              =    -442.66725064 Ry
     Harris-Foulkes estimate   =    -442.66725064 Ry
     estimated scf accuracy    <          1.9E-10 Ry

     iteration #  6     ecut=    25.00 Ry     beta= 0.70
     Davidson diagonalization with overlap
     ethr =  3.74E-13,  avg # of iterations =  2.9

     total cpu time spent up to now is    35956.4 secs

     total energy              =    -442.66725064 Ry
     Harris-Foulkes estimate   =    -442.66725064 Ry
     estimated scf accuracy    <          1.5E-11 Ry

     iteration #  7     ecut=    25.00 Ry     beta= 0.70
     Davidson diagonalization with overlap
     ethr =  1.00E-13,  avg # of iterations =  1.9

     total cpu time spent up to now is    36012.7 secs

     total energy              =    -442.66725064 Ry
     Harris-Foulkes estimate   =    -442.66725064 Ry
     estimated scf accuracy    <          4.4E-12 Ry

     iteration #  8     ecut=    25.00 Ry     beta= 0.70
     Davidson diagonalization with overlap
     ethr =  1.00E-13,  avg # of iterations =  1.0

     total cpu time spent up to now is    36065.2 secs

     End of self-consistent calculation

     Number of k-points >= 100: set verbosity='high' to print the bands.

     highest occupied level (ev):    26.0499

!    total energy              =    -442.66725064 Ry
     Harris-Foulkes estimate   =    -442.66725064 Ry
     estimated scf accuracy    <          8.1E-13 Ry

     The total energy is the sum of the following terms:

     one-electron contribution =      12.83008224 Ry
     hartree contribution      =      61.94525343 Ry
     xc contribution           =    -125.33748239 Ry
     ewald contribution        =    -392.10510391 Ry

     convergence has been achieved in   8 iterations

     Forces acting on atoms (cartesian axes, Ry/au):

     atom    1 type  1   force =    -0.00042598   -0.00042598    0.00000000
     atom    2 type  1   force =     0.00005356    0.00005356    0.00000000
     atom    3 type  2   force =     0.00012607   -0.00015503    0.00000000
     atom    4 type  2   force =    -0.00015503    0.00012607    0.00000000
     atom    5 type  2   force =     0.00027556    0.00027556    0.00000000
     atom    6 type  2   force =     0.00012582    0.00012582    0.00000000

     Total force =     0.000795     Total SCF correction =     0.000003


     Computing stress (Cartesian axis) and pressure

          total   stress  (Ry/bohr**3)                   (kbar)     P=   -2.22
  -0.00000966   0.00716276   0.00000000         -1.42   1053.68      0.00
   0.00716276  -0.00000966   0.00000000       1053.68     -1.42      0.00
   0.00000000   0.00000000  -0.00002596          0.00      0.00     -3.82


     bfgs converged in  44 scf cycles and  33 bfgs steps
     (criteria: energy <  1.0E-10 Ry, force <  1.0E-09Ry/Bohr, cell <  5.0E-01kbar)

     End of BFGS Geometry Optimization

     Final enthalpy =    -442.6672506444 Ry
Begin final coordinates
     new unit-cell volume =    250.42576 a.u.^3 (    37.10927 Ang^3 )
     density =     13.48755 g/cm^3

CELL_PARAMETERS (alat=  9.11000000)
   0.780834363   0.000000000   0.000000000
   0.000000000   0.780834363   0.000000000
   0.000000000   0.000000000   0.543257878

ATOMIC_POSITIONS (crystal)
Sn       0.046621106   0.046621106   0.000000000
Sn       0.555521442   0.555521442   0.500000000
O        0.703247661   0.115756414   0.500000000
O        0.115756414   0.703247661   0.500000000
O        0.344115400   0.344115400   0.000000000
O        0.732737978   0.732737978   0.000000000
End final coordinates



     A final scf calculation at the relaxed structure.
     The G-vectors are recalculated for the final unit cell
     Results may differ from those at the preceding step.
 
     Parallelization info
     --------------------
     sticks:   dense  smooth     PW     G-vecs:    dense   smooth      PW
     Min         202     202     68                 2125     2125     436
     Max         203     203     69                 2126     2126     437
     Sum         405     405    137                 4251     4251     873
 


     bravais-lattice index     =            6
     lattice parameter (alat)  =       9.1100  a.u.
     unit-cell volume          =     250.4258 (a.u.)^3
     number of atoms/cell      =            6
     number of atomic types    =            2
     number of electrons       =        52.00
     number of Kohn-Sham states=           26
     kinetic-energy cutoff     =      25.0000  Ry
     charge density cutoff     =     100.0000  Ry
     convergence threshold     =      1.0E-12
     mixing beta               =       0.7000
     number of iterations used =            8  plain     mixing
     Exchange-correlation      = PBE ( 1  4  3  4 0 0)

     celldm(1)=   9.110000  celldm(2)=   0.000000  celldm(3)=   0.670000
     celldm(4)=   0.000000  celldm(5)=   0.000000  celldm(6)=   0.000000

     crystal axes: (cart. coord. in units of alat)
               a(1) = (   0.780834   0.000000   0.000000 )  
               a(2) = (   0.000000   0.780834   0.000000 )  
               a(3) = (   0.000000   0.000000   0.543258 )  

     reciprocal axes: (cart. coord. in units 2 pi/alat)
               b(1) = (  1.280681  0.000000  0.000000 )  
               b(2) = (  0.000000  1.280681  0.000000 )  
               b(3) = (  0.000000  0.000000  1.840746 )  


     PseudoPot. # 1 for Sn read from file:
     ../../Pseudo_potentials/Sn_PBE.upf
     MD5 check sum: 78e6386ae56e929f0568ae8bf606a80c
     Pseudo is Norm-conserving + core correction, Zval = 14.0
     Generated using ONCVPSP code by D. R. Hamann
     Using radial grid of 1628 points,  6 beta functions with: 
                l(1) =   0
                l(2) =   0
                l(3) =   1
                l(4) =   1
                l(5) =   2
                l(6) =   2

     PseudoPot. # 2 for O  read from file:
     ../../Pseudo_potentials/O_PBE.upf
     MD5 check sum: 3e3f909f7470e8921608ab6b1f57bbae
     Pseudo is Norm-conserving + core correction, Zval =  6.0
     Generated using ONCVPSP code by D. R. Hamann
     Using radial grid of  936 points,  5 beta functions with: 
                l(1) =   0
                l(2) =   0
                l(3) =   1
                l(4) =   1
                l(5) =   2

     atomic species   valence    mass     pseudopotential
        Sn            14.00   118.71000     Sn( 1.00)
        O              6.00    15.99900     O ( 1.00)

      4 Sym. Ops. (no inversion) found



   Cartesian axes

     site n.     atom                  positions (alat units)
         1           Sn  tau(   1) = (   0.0364034   0.0364034   0.0000000  )
         2           Sn  tau(   2) = (   0.4337702   0.4337702   0.2716289  )
         3           O   tau(   3) = (   0.5491199   0.0903866   0.2716289  )
         4           O   tau(   4) = (   0.0903866   0.5491199   0.2716289  )
         5           O   tau(   5) = (   0.2686971   0.2686971   0.0000000  )
         6           O   tau(   6) = (   0.5721470   0.5721470   0.0000000  )

     number of k points=   910

     Number of k-points >= 100: set verbosity='high' to print them.

     Dense  grid:     4251 G-vectors     FFT dimensions: (  24,  24,  15)

     Estimated max dynamical RAM per process >     103.13 MB

     Estimated total dynamical RAM >     206.25 MB

     Check: negative/imaginary core charge=   -0.003337    0.000000

     Initial potential from superposition of free atoms
     Check: negative starting charge=   -0.004683

     starting charge   51.99690, renormalised to   52.00000

     negative rho (up, down):  4.683E-03 0.000E+00
     Starting wfc are   34 randomized atomic wfcs

     Writing output data file SnO2.save

     total cpu time spent up to now is    36096.3 secs

     Self-consistent Calculation

     iteration #  1     ecut=    25.00 Ry     beta= 0.70
     Davidson diagonalization with overlap
     ethr =  1.00E-06,  avg # of iterations =  7.1

     negative rho (up, down):  1.370E-03 0.000E+00

     total cpu time spent up to now is    36173.7 secs

     total energy              =    -426.27597513 Ry
     Harris-Foulkes estimate   =    -429.52695150 Ry
     estimated scf accuracy    <       4.44811419 Ry

     iteration #  2     ecut=    25.00 Ry     beta= 0.70
     Davidson diagonalization with overlap
     ethr =  8.55E-03,  avg # of iterations =  2.0

     negative rho (up, down):  4.421E-04 0.000E+00

     total cpu time spent up to now is    36207.7 secs

     total energy              =    -427.13359637 Ry
     Harris-Foulkes estimate   =    -427.40488803 Ry
     estimated scf accuracy    <       0.42745404 Ry

     iteration #  3     ecut=    25.00 Ry     beta= 0.70
     Davidson diagonalization with overlap
     ethr =  8.22E-04,  avg # of iterations =  2.8

     negative rho (up, down):  5.146E-05 0.000E+00

     total cpu time spent up to now is    36243.2 secs

     total energy              =    -427.23255705 Ry
     Harris-Foulkes estimate   =    -427.26611505 Ry
     estimated scf accuracy    <       0.06705213 Ry

     iteration #  4     ecut=    25.00 Ry     beta= 0.70
     Davidson diagonalization with overlap
     ethr =  1.29E-04,  avg # of iterations =  2.2

     total cpu time spent up to now is    36275.3 secs

     total energy              =    -427.24445276 Ry
     Harris-Foulkes estimate   =    -427.24842896 Ry
     estimated scf accuracy    <       0.00694700 Ry

     iteration #  5     ecut=    25.00 Ry     beta= 0.70
     Davidson diagonalization with overlap
     ethr =  1.34E-05,  avg # of iterations =  2.9

     total cpu time spent up to now is    36313.1 secs

     total energy              =    -427.24622588 Ry
     Harris-Foulkes estimate   =    -427.24711320 Ry
     estimated scf accuracy    <       0.00167057 Ry

     iteration #  6     ecut=    25.00 Ry     beta= 0.70
     Davidson diagonalization with overlap
     ethr =  3.21E-06,  avg # of iterations =  2.4

     total cpu time spent up to now is    36346.0 secs

     total energy              =    -427.24662377 Ry
     Harris-Foulkes estimate   =    -427.24664619 Ry
     estimated scf accuracy    <       0.00004673 Ry

     iteration #  7     ecut=    25.00 Ry     beta= 0.70
     Davidson diagonalization with overlap
     ethr =  8.99E-08,  avg # of iterations =  2.5

     total cpu time spent up to now is    36380.8 secs

     total energy              =    -427.24663697 Ry
     Harris-Foulkes estimate   =    -427.24663812 Ry
     estimated scf accuracy    <       0.00000308 Ry

     iteration #  8     ecut=    25.00 Ry     beta= 0.70
     Davidson diagonalization with overlap
     ethr =  5.92E-09,  avg # of iterations =  2.8

     total cpu time spent up to now is    36414.1 secs

     total energy              =    -427.24663757 Ry
     Harris-Foulkes estimate   =    -427.24663773 Ry
     estimated scf accuracy    <       0.00000030 Ry

     iteration #  9     ecut=    25.00 Ry     beta= 0.70
     Davidson diagonalization with overlap
     ethr =  5.73E-10,  avg # of iterations =  2.9

     total cpu time spent up to now is    36450.4 secs

     total energy              =    -427.24663765 Ry
     Harris-Foulkes estimate   =    -427.24663765 Ry
     estimated scf accuracy    <       0.00000001 Ry

     iteration # 10     ecut=    25.00 Ry     beta= 0.70
     Davidson diagonalization with overlap
     ethr =  2.31E-11,  avg # of iterations =  2.9

     total cpu time spent up to now is    36483.8 secs

     total energy              =    -427.24663765 Ry
     Harris-Foulkes estimate   =    -427.24663765 Ry
     estimated scf accuracy    <          6.0E-10 Ry

     iteration # 11     ecut=    25.00 Ry     beta= 0.70
     Davidson diagonalization with overlap
     ethr =  1.15E-12,  avg # of iterations =  2.4

     total cpu time spent up to now is    36518.3 secs

     total energy              =    -427.24663765 Ry
     Harris-Foulkes estimate   =    -427.24663765 Ry
     estimated scf accuracy    <          2.7E-11 Ry

     iteration # 12     ecut=    25.00 Ry     beta= 0.70
     Davidson diagonalization with overlap
     ethr =  1.00E-13,  avg # of iterations =  2.0

     total cpu time spent up to now is    36548.2 secs

     End of self-consistent calculation

     Number of k-points >= 100: set verbosity='high' to print the bands.

     highest occupied level (ev):    28.6365

!    total energy              =    -427.24663765 Ry
     Harris-Foulkes estimate   =    -427.24663765 Ry
     estimated scf accuracy    <          6.9E-13 Ry

     The total energy is the sum of the following terms:

     one-electron contribution =      34.94012006 Ry
     hartree contribution      =      50.85954819 Ry
     xc contribution           =    -120.94120197 Ry
     ewald contribution        =    -392.10510392 Ry

     convergence has been achieved in  12 iterations

     Forces acting on atoms (cartesian axes, Ry/au):

     atom    1 type  1   force =     0.08847742    0.08847742    0.00000000
     atom    2 type  1   force =     0.01198352    0.01198352    0.00000000
     atom    3 type  2   force =     0.01054875   -0.08976859    0.00000000
     atom    4 type  2   force =    -0.08976859    0.01054875    0.00000000
     atom    5 type  2   force =    -0.07410015   -0.07410015    0.00000000
     atom    6 type  2   force =     0.05285906    0.05285906    0.00000000

     Total force =     0.221027     Total SCF correction =     0.000003


     Computing stress (Cartesian axis) and pressure

          total   stress  (Ry/bohr**3)                   (kbar)     P=********
  -0.09762500   0.00945353   0.00000000     -14361.13   1390.66      0.00
   0.00945353  -0.09762500   0.00000000       1390.66 -14361.13      0.00
   0.00000000   0.00000000  -0.09002270          0.00      0.00 -13242.79


     Writing output data file SnO2.save
 
     init_run     :     31.72s CPU     36.26s WALL (       2 calls)
     electrons    :  30718.59s CPU  35595.76s WALL (      45 calls)
     update_pot   :     17.85s CPU     18.17s WALL (      43 calls)
     forces       :    252.21s CPU    259.60s WALL (      45 calls)
     stress       :    597.47s CPU    630.03s WALL (      45 calls)

     Called by init_run:
     wfcinit      :     31.19s CPU     35.69s WALL (       2 calls)
     potinit      :      0.14s CPU      0.14s WALL (       2 calls)
     hinit0       :      0.37s CPU      0.41s WALL (       2 calls)

     Called by electrons:
     c_bands      :  28068.81s CPU  32726.83s WALL (     465 calls)
     sum_band     :   2645.65s CPU   2862.41s WALL (     465 calls)
     v_of_rho     :      3.29s CPU      3.29s WALL (     501 calls)
     mix_rho      :      0.86s CPU      1.02s WALL (     465 calls)

     Called by c_bands:
     init_us_2    :    430.89s CPU    518.09s WALL (  930020 calls)
     cegterg      :  25692.62s CPU  30316.68s WALL (  423150 calls)

     Called by sum_band:

     Called by *egterg:
     h_psi        :  18340.66s CPU  22452.78s WALL ( 1501614 calls)
     g_psi        :    146.53s CPU    161.17s WALL ( 1076644 calls)
     cdiaghg      :   3104.02s CPU   3249.07s WALL ( 1452474 calls)

     Called by h_psi:
     h_psi:pot    :  18204.49s CPU  22247.88s WALL ( 1501614 calls)
     h_psi:calbec :   2045.00s CPU   1815.14s WALL ( 1501614 calls)
     vloc_psi     :  14997.69s CPU  18599.48s WALL ( 1501614 calls)
     add_vuspsi   :   1157.68s CPU   1823.26s WALL ( 1501614 calls)

     General routines
     calbec       :   2322.95s CPU   2033.00s WALL ( 1706364 calls)
     fft          :      2.02s CPU      2.28s WALL (    6187 calls)
     ffts         :      0.17s CPU      0.16s WALL (     465 calls)
     fftw         :  17080.29s CPU  19647.42s WALL (76178292 calls)
 
     Parallel routines
     fft_scatt_xy :    284.77s CPU   1505.37s WALL (76184944 calls)
     fft_scatt_yz :  13603.55s CPU   2709.32s WALL (76184944 calls)
 
     PWSCF        :     8h47m CPU       10h 9m WALL

 
   This run was terminated on:  22:54:32   9Apr2018            

=------------------------------------------------------------------------------=
   JOB DONE.
=------------------------------------------------------------------------------=
