
     Program PWSCF v.6.2.2 starts on 21Apr2018 at 12:22: 1 

     This program is part of the open-source Quantum ESPRESSO suite
     for quantum simulation of materials; please cite
         "P. Giannozzi et al., J. Phys.:Condens. Matter 21 395502 (2009);
         "P. Giannozzi et al., J. Phys.:Condens. Matter 29 465901 (2017);
          URL http://www.quantum-espresso.org", 
     in publications or presentations arising from this work. More details at
     http://www.quantum-espresso.org/quote

     Parallel version (MPI), running on     2 processors

     MPI processes distributed on     1 nodes
     R & G space division:  proc/nbgrp/npool/nimage =       2
     Reading input from Conv_acell-kp.in

     Current dimensions of program PWSCF are:
     Max number of different atomic species (ntypx) = 10
     Max number of k-points (npk) =  40000
     Max angular momentum in pseudopotentials (lmaxx) =  3

     Subspace diagonalization in iterative solution of the eigenvalue problem:
     a serial algorithm will be used

 
     Parallelization info
     --------------------
     sticks:   dense  smooth     PW     G-vecs:    dense   smooth      PW
     Min         332     332    110                 4313     4313     791
     Max         333     333    111                 4314     4314     792
     Sum         665     665    221                 8627     8627    1583
 


     bravais-lattice index     =            6
     lattice parameter (alat)  =       9.1100  a.u.
     unit-cell volume          =     506.5589 (a.u.)^3
     number of atoms/cell      =            6
     number of atomic types    =            2
     number of electrons       =        52.00
     number of Kohn-Sham states=           26
     kinetic-energy cutoff     =      25.0000  Ry
     charge density cutoff     =     100.0000  Ry
     convergence threshold     =      1.0E-12
     mixing beta               =       0.7000
     number of iterations used =            8  plain     mixing
     Exchange-correlation      = PBE ( 1  4  3  4 0 0)
     nstep                     =           50


     celldm(1)=   9.110000  celldm(2)=   0.000000  celldm(3)=   0.670000
     celldm(4)=   0.000000  celldm(5)=   0.000000  celldm(6)=   0.000000

     crystal axes: (cart. coord. in units of alat)
               a(1) = (   1.000000   0.000000   0.000000 )  
               a(2) = (   0.000000   1.000000   0.000000 )  
               a(3) = (   0.000000   0.000000   0.670000 )  

     reciprocal axes: (cart. coord. in units 2 pi/alat)
               b(1) = (  1.000000  0.000000  0.000000 )  
               b(2) = (  0.000000  1.000000  0.000000 )  
               b(3) = (  0.000000  0.000000  1.492537 )  


     PseudoPot. # 1 for Sn read from file:
     ../../Pseudo_potentials/Sn_PBE.upf
     MD5 check sum: 78e6386ae56e929f0568ae8bf606a80c
     Pseudo is Norm-conserving + core correction, Zval = 14.0
     Generated using ONCVPSP code by D. R. Hamann
     Using radial grid of 1628 points,  6 beta functions with: 
                l(1) =   0
                l(2) =   0
                l(3) =   1
                l(4) =   1
                l(5) =   2
                l(6) =   2

     PseudoPot. # 2 for O  read from file:
     ../../Pseudo_potentials/O_PBE.upf
     MD5 check sum: 3e3f909f7470e8921608ab6b1f57bbae
     Pseudo is Norm-conserving + core correction, Zval =  6.0
     Generated using ONCVPSP code by D. R. Hamann
     Using radial grid of  936 points,  5 beta functions with: 
                l(1) =   0
                l(2) =   0
                l(3) =   1
                l(4) =   1
                l(5) =   2

     atomic species   valence    mass     pseudopotential
        Sn            14.00   118.71000     Sn( 1.00)
        O              6.00    15.99900     O ( 1.00)

      4 Sym. Ops. (no inversion) found



   Cartesian axes

     site n.     atom                  positions (alat units)
         1           Sn  tau(   1) = (   0.0000000   0.0000000   0.0000000  )
         2           Sn  tau(   2) = (   0.5000000   0.5000000   0.3350000  )
         3           O   tau(   3) = (   0.8060000   0.1930000   0.3350000  )
         4           O   tau(   4) = (   0.1930000   0.8060000   0.3350000  )
         5           O   tau(   5) = (   0.3060000   0.3060000   0.0000000  )
         6           O   tau(   6) = (   0.6930000   0.6930000   0.0000000  )

     number of k points=    21
                       cart. coord. in units 2pi/alat
        k(    1) = (   0.0000000   0.0000000   0.0000000), wk =   0.0312500
        k(    2) = (   0.0000000   0.0000000   0.3731343), wk =   0.0625000
        k(    3) = (   0.0000000   0.0000000  -0.7462687), wk =   0.0312500
        k(    4) = (   0.0000000   0.2500000   0.0000000), wk =   0.1250000
        k(    5) = (   0.0000000   0.2500000   0.3731343), wk =   0.2500000
        k(    6) = (   0.0000000   0.2500000  -0.7462687), wk =   0.1250000
        k(    7) = (   0.0000000  -0.5000000   0.0000000), wk =   0.0625000
        k(    8) = (   0.0000000  -0.5000000   0.3731343), wk =   0.1250000
        k(    9) = (   0.0000000  -0.5000000  -0.7462687), wk =   0.0625000
        k(   10) = (   0.2500000   0.2500000   0.0000000), wk =   0.0625000
        k(   11) = (   0.2500000   0.2500000   0.3731343), wk =   0.1250000
        k(   12) = (   0.2500000   0.2500000  -0.7462687), wk =   0.0625000
        k(   13) = (   0.2500000  -0.5000000   0.0000000), wk =   0.1250000
        k(   14) = (   0.2500000  -0.5000000   0.3731343), wk =   0.2500000
        k(   15) = (   0.2500000  -0.5000000  -0.7462687), wk =   0.1250000
        k(   16) = (  -0.5000000  -0.5000000   0.0000000), wk =   0.0312500
        k(   17) = (  -0.5000000  -0.5000000   0.3731343), wk =   0.0625000
        k(   18) = (  -0.5000000  -0.5000000  -0.7462687), wk =   0.0312500
        k(   19) = (   0.2500000  -0.2500000   0.0000000), wk =   0.0625000
        k(   20) = (   0.2500000  -0.2500000   0.3731343), wk =   0.1250000
        k(   21) = (   0.2500000  -0.2500000  -0.7462687), wk =   0.0625000

     Dense  grid:     8627 G-vectors     FFT dimensions: (  30,  30,  20)

     Estimated max dynamical RAM per process >      14.80 MB

     Estimated total dynamical RAM >      29.61 MB

     Check: negative/imaginary core charge=   -0.002394    0.000000

     Initial potential from superposition of free atoms
     Check: negative starting charge=   -0.009566

     starting charge   51.99690, renormalised to   52.00000

     negative rho (up, down):  9.566E-03 0.000E+00
     Starting wfc are   34 randomized atomic wfcs

     total cpu time spent up to now is        0.9 secs

     Self-consistent Calculation

     iteration #  1     ecut=    25.00 Ry     beta= 0.70
     Davidson diagonalization with overlap
     ethr =  1.00E-02,  avg # of iterations =  2.0

     negative rho (up, down):  2.855E-03 0.000E+00

     total cpu time spent up to now is        1.8 secs

     total energy              =    -429.63185221 Ry
     Harris-Foulkes estimate   =    -432.66071519 Ry
     estimated scf accuracy    <       4.16985082 Ry

     iteration #  2     ecut=    25.00 Ry     beta= 0.70
     Davidson diagonalization with overlap
     ethr =  8.02E-03,  avg # of iterations =  2.0

     negative rho (up, down):  8.849E-04 0.000E+00

     total cpu time spent up to now is        2.7 secs

     total energy              =    -430.40722298 Ry
     Harris-Foulkes estimate   =    -430.54748733 Ry
     estimated scf accuracy    <       0.24898211 Ry

     iteration #  3     ecut=    25.00 Ry     beta= 0.70
     Davidson diagonalization with overlap
     ethr =  4.79E-04,  avg # of iterations =  2.9

     negative rho (up, down):  1.539E-04 0.000E+00

     total cpu time spent up to now is        3.7 secs

     total energy              =    -430.45469642 Ry
     Harris-Foulkes estimate   =    -430.46721662 Ry
     estimated scf accuracy    <       0.02751375 Ry

     iteration #  4     ecut=    25.00 Ry     beta= 0.70
     Davidson diagonalization with overlap
     ethr =  5.29E-05,  avg # of iterations =  2.8

     total cpu time spent up to now is        4.6 secs

     total energy              =    -430.45953505 Ry
     Harris-Foulkes estimate   =    -430.46113310 Ry
     estimated scf accuracy    <       0.00314427 Ry

     iteration #  5     ecut=    25.00 Ry     beta= 0.70
     Davidson diagonalization with overlap
     ethr =  6.05E-06,  avg # of iterations =  2.9

     total cpu time spent up to now is        5.6 secs

     total energy              =    -430.46027119 Ry
     Harris-Foulkes estimate   =    -430.46036277 Ry
     estimated scf accuracy    <       0.00018016 Ry

     iteration #  6     ecut=    25.00 Ry     beta= 0.70
     Davidson diagonalization with overlap
     ethr =  3.46E-07,  avg # of iterations =  3.0

     total cpu time spent up to now is        6.6 secs

     total energy              =    -430.46031841 Ry
     Harris-Foulkes estimate   =    -430.46032643 Ry
     estimated scf accuracy    <       0.00002145 Ry

     iteration #  7     ecut=    25.00 Ry     beta= 0.70
     Davidson diagonalization with overlap
     ethr =  4.12E-08,  avg # of iterations =  3.0

     total cpu time spent up to now is        7.5 secs

     total energy              =    -430.46031957 Ry
     Harris-Foulkes estimate   =    -430.46032182 Ry
     estimated scf accuracy    <       0.00000465 Ry

     iteration #  8     ecut=    25.00 Ry     beta= 0.70
     Davidson diagonalization with overlap
     ethr =  8.95E-09,  avg # of iterations =  3.0

     total cpu time spent up to now is        8.5 secs

     total energy              =    -430.46032042 Ry
     Harris-Foulkes estimate   =    -430.46032042 Ry
     estimated scf accuracy    <       0.00000002 Ry

     iteration #  9     ecut=    25.00 Ry     beta= 0.70
     Davidson diagonalization with overlap
     ethr =  3.73E-11,  avg # of iterations =  3.9

     total cpu time spent up to now is        9.7 secs

     total energy              =    -430.46032043 Ry
     Harris-Foulkes estimate   =    -430.46032043 Ry
     estimated scf accuracy    <       0.00000001 Ry

     iteration # 10     ecut=    25.00 Ry     beta= 0.70
     Davidson diagonalization with overlap
     ethr =  2.08E-11,  avg # of iterations =  3.0

     total cpu time spent up to now is       10.6 secs

     total energy              =    -430.46032043 Ry
     Harris-Foulkes estimate   =    -430.46032043 Ry
     estimated scf accuracy    <          1.5E-09 Ry

     iteration # 11     ecut=    25.00 Ry     beta= 0.70
     Davidson diagonalization with overlap
     ethr =  2.86E-12,  avg # of iterations =  3.2

     total cpu time spent up to now is       11.7 secs

     total energy              =    -430.46032043 Ry
     Harris-Foulkes estimate   =    -430.46032043 Ry
     estimated scf accuracy    <          1.8E-10 Ry

     iteration # 12     ecut=    25.00 Ry     beta= 0.70
     Davidson diagonalization with overlap
     ethr =  3.41E-13,  avg # of iterations =  3.0

     total cpu time spent up to now is       12.7 secs

     total energy              =    -430.46032043 Ry
     Harris-Foulkes estimate   =    -430.46032043 Ry
     estimated scf accuracy    <          3.6E-12 Ry

     iteration # 13     ecut=    25.00 Ry     beta= 0.70
     Davidson diagonalization with overlap
     ethr =  1.00E-13,  avg # of iterations =  1.3

     total cpu time spent up to now is       13.4 secs

     End of self-consistent calculation

          k = 0.0000 0.0000 0.0000 (  1065 PWs)   bands (ev):

   -12.1523 -11.5235 -10.2207 -10.2207 -10.2036 -10.1101 -10.0190  -9.9165
    -9.9152  -9.7358  -9.2018  -9.0936  -9.0936  -7.1410   0.9986   5.6154
     5.6155   5.8908   6.9777   7.7945   7.9709   9.0587   9.2009   9.2009
     9.2145   9.2145

          k = 0.0000 0.0000 0.3731 (  1082 PWs)   bands (ev):

   -11.9221 -11.4671 -11.4669 -11.1081 -10.6276 -10.1081 -10.0112 -10.0112
    -9.9939  -9.5095  -9.3056  -8.4898  -8.4898  -7.8193   1.0616   4.3776
     5.4287   6.0749   6.0750   7.0811   7.0812   7.2502   7.3379   9.2491
     9.2491   9.3299

          k = 0.0000 0.0000-0.7463 (  1058 PWs)   bands (ev):

   -11.5056 -11.5054 -10.9851 -10.9851  -9.6084  -9.6084  -9.4044  -9.4043
    -9.3447  -9.3446  -8.7872  -8.7871  -7.5898  -7.5898   1.9374   1.9375
     5.4821   5.4821   5.9615   5.9615   7.3060   7.3060   8.3813   8.3813
     8.8339   8.8340

          k = 0.0000 0.2500 0.0000 (  1076 PWs)   bands (ev):

   -11.9310 -11.4553 -10.9475 -10.4314 -10.3319 -10.1775  -9.9505  -9.9388
    -9.9037  -9.7725  -9.7234  -9.6486  -9.1704  -7.5264   1.4039   4.3570
     5.9881   6.1030   7.1796   7.3818   7.5978   8.6367   9.1421   9.1785
     9.1863   9.5083

          k = 0.0000 0.2500 0.3731 (  1071 PWs)   bands (ev):

   -11.7539 -11.4844 -11.1304 -10.9630 -10.1513  -9.9893  -9.9219  -9.7033
    -9.6514  -9.6295  -9.5316  -8.8094  -8.1810  -7.6750   1.4713   3.8878
     4.8355   5.1777   6.6374   6.6530   7.3564   8.0367   8.2882   9.1644
     9.2151   9.5114

          k = 0.0000 0.2500-0.7463 (  1062 PWs)   bands (ev):

   -11.7738 -11.7736 -10.6924 -10.6923  -9.7448  -9.7447  -9.6582  -9.6582
    -9.4064  -9.4063  -9.0910  -9.0909  -7.3844  -7.3844   2.0666   2.0668
     4.6928   4.6929   5.5524   5.5525   8.3533   8.3533   8.5567   8.5568
     9.0037   9.0037

          k = 0.0000-0.5000 0.0000 (  1078 PWs)   bands (ev):

   -11.6035 -11.6016 -10.7554 -10.7550 -10.4254 -10.4250 -10.0885 -10.0883
   -10.0611 -10.0604  -9.6968  -9.6958  -8.1033  -8.0985   2.6021   2.6114
     6.5831   6.5955   6.6220   6.6250   7.9873   7.9904   9.1117   9.1161
     9.3189   9.3234

          k = 0.0000-0.5000 0.3731 (  1064 PWs)   bands (ev):

   -11.5776 -11.5741 -10.9836 -10.9732  -9.8399  -9.8395  -9.6937  -9.6936
    -9.5295  -9.5182  -9.3798  -9.3786  -7.7026  -7.6991   2.5493   2.5529
     4.7078   4.7143   6.6152   6.6226   8.3215   8.3242   9.0246   9.0257
     9.1069   9.1088

          k = 0.0000-0.5000-0.7463 (  1096 PWs)   bands (ev):

   -12.1848 -12.1847 -10.7181 -10.7179 -10.3605 -10.3604 -10.2307 -10.2306
   -10.0180 -10.0179  -9.8709  -9.8708  -7.5377  -7.5376   2.1885   2.1886
     3.9369   3.9370   5.3480   5.3481   8.2933   8.2933   8.7369   8.7369
     9.5903   9.5904

          k = 0.2500 0.2500 0.0000 (  1056 PWs)   bands (ev):

   -11.8486 -11.4281 -10.8429 -10.0349  -9.9983  -9.9660  -9.8817  -9.6134
    -9.4866  -9.4599  -9.2115  -9.1407  -8.8954  -7.6347   1.8774   4.2630
     5.7218   6.3061   7.1749   7.1922   7.3832   8.5539   9.1342   9.1826
     9.2391   9.5196

          k = 0.2500 0.2500 0.3731 (  1071 PWs)   bands (ev):

   -11.7377 -11.4097 -11.3478 -10.9616 -10.0293  -9.9592  -9.9034  -9.8685
    -9.6561  -9.5396  -9.4242  -8.5783  -8.4138  -7.7411   1.7219   3.2038
     4.9226   6.1418   6.2618   6.3660   7.0067   8.2729   8.5037   9.1749
     9.2524   9.4527

          k = 0.2500 0.2500-0.7463 (  1072 PWs)   bands (ev):

   -11.9372 -11.5924 -11.2515 -10.2767 -10.2341  -9.8882  -9.8858  -9.7564
    -9.6780  -9.5132  -9.4615  -9.1374  -7.5671  -7.2616   1.6491   2.1727
     4.2961   4.9524   5.0877   6.7890   7.2632   8.6124   8.6700   8.6979
     8.9645   9.4004

          k = 0.2500-0.5000 0.0000 (  1062 PWs)   bands (ev):

   -11.6750 -11.6740 -10.4373 -10.4360 -10.1048 -10.1043  -9.6809  -9.6807
    -9.6725  -9.6719  -9.5316  -9.5295  -8.2017  -8.1990   3.0392   3.0470
     6.3170   6.3268   6.6873   6.6889   7.9410   7.9428   9.1175   9.1194
     9.2275   9.2288

          k = 0.2500-0.5000 0.3731 (  1068 PWs)   bands (ev):

   -11.5778 -11.5757 -11.1682 -11.1623  -9.8971  -9.8965  -9.7105  -9.7100
    -9.4931  -9.4922  -9.3264  -9.3193  -7.9418  -7.9384   2.3960   2.3985
     5.3218   5.3260   6.2797   6.2832   8.1224   8.1227   8.8524   8.8539
     9.3346   9.3358

          k = 0.2500-0.5000-0.7463 (  1072 PWs)   bands (ev):

   -11.9358 -11.9357 -10.7256 -10.7255 -10.0535 -10.0534  -9.8203  -9.8202
    -9.6356  -9.6355  -9.1221  -9.1220  -7.5256  -7.5256   1.6658   1.6659
     4.7254   4.7254   5.6031   5.6032   8.6198   8.6198   9.0235   9.0235
     9.0902   9.0902

          k =-0.5000-0.5000 0.0000 (  1084 PWs)   bands (ev):

   -11.8378 -11.8377 -10.7684 -10.7684 -10.1967 -10.1966 -10.0804 -10.0787
   -10.0297 -10.0293 -10.0001  -9.9990  -8.3478  -8.3477   3.5457   3.5458
     5.8186   5.8187   6.6670   6.6671   7.6981   7.6981   9.0187   9.0188
     9.0873   9.0874

          k =-0.5000-0.5000 0.3731 (  1060 PWs)   bands (ev):

   -11.4968 -11.4966 -11.1486 -11.1486  -9.7656  -9.7655  -9.7215  -9.7214
    -9.5524  -9.5523  -8.6148  -8.6147  -8.1981  -8.1980   2.3400   2.3400
     6.0269   6.0270   6.4891   6.4891   7.1964   7.1965   9.1370   9.1371
     9.2568   9.2570

          k =-0.5000-0.5000-0.7463 (  1072 PWs)   bands (ev):

   -11.6931 -11.6930 -11.1532 -11.1531 -10.0307 -10.0306  -9.7652  -9.7651
    -9.6698  -9.6697  -9.0131  -9.0129  -7.6476  -7.6476   1.3125   1.3126
     4.7562   4.7562   7.2452   7.2453   7.2748   7.2748   8.8942   8.8942
     9.2108   9.2109

          k = 0.2500-0.2500 0.0000 (  1056 PWs)   bands (ev):

   -11.8487 -11.4280 -10.8429 -10.0348  -9.9983  -9.9673  -9.8804  -9.6134
    -9.4866  -9.4600  -9.2116  -9.1407  -8.8954  -7.6348   1.8774   4.2630
     5.7218   6.3061   7.1748   7.1922   7.3832   8.5539   9.1342   9.1826
     9.2391   9.5196

          k = 0.2500-0.2500 0.3731 (  1071 PWs)   bands (ev):

   -11.7377 -11.4098 -11.3479 -10.9615 -10.0292  -9.9593  -9.9033  -9.8686
    -9.6561  -9.5396  -9.4242  -8.5783  -8.4137  -7.7411   1.7220   3.2037
     4.9227   6.1416   6.2619   6.3660   7.0066   8.2728   8.5038   9.1749
     9.2525   9.4527

          k = 0.2500-0.2500-0.7463 (  1072 PWs)   bands (ev):

   -11.9371 -11.5925 -11.2516 -10.2728 -10.2381  -9.8882  -9.8859  -9.7564
    -9.6779  -9.5131  -9.4615  -9.1373  -7.5670  -7.2616   1.6492   2.1726
     4.2960   4.9524   5.0878   6.7890   7.2632   8.6124   8.6695   8.6985
     8.9644   9.4006

     highest occupied level (ev):     9.5904

!    total energy              =    -430.46032043 Ry
     Harris-Foulkes estimate   =    -430.46032043 Ry
     estimated scf accuracy    <          1.3E-13 Ry

     The total energy is the sum of the following terms:

     one-electron contribution =     -96.67073781 Ry
     hartree contribution      =      85.53176497 Ry
     xc contribution           =    -116.84000926 Ry
     ewald contribution        =    -302.48133834 Ry

     convergence has been achieved in  13 iterations

     Forces acting on atoms (cartesian axes, Ry/au):

     atom    1 type  1   force =     0.00042851    0.00042851    0.00000000
     atom    2 type  1   force =     0.00001037    0.00001037    0.00000000
     atom    3 type  2   force =     0.01446872   -0.01401198    0.00000000
     atom    4 type  2   force =    -0.01401198    0.01446872    0.00000000
     atom    5 type  2   force =     0.01380884    0.01380884    0.00000000
     atom    6 type  2   force =    -0.01470447   -0.01470447    0.00000000

     Total force =     0.040318     Total SCF correction =     0.000002


     Computing stress (Cartesian axis) and pressure

          total   stress  (Ry/bohr**3)                   (kbar)     P=-9546.58
  -0.06534631   0.00000027   0.00000000      -9612.77      0.04      0.00
   0.00000027  -0.06534631   0.00000000          0.04  -9612.77      0.00
   0.00000000  -0.00000000  -0.06399640          0.00     -0.00  -9414.19


     BFGS Geometry Optimization

     number of scf cycles    =   1
     number of bfgs steps    =   0

     enthalpy new            =    -430.4603204268 Ry

     new trust radius        =       0.5000000000 bohr
     new conv_thr            =            1.0E-12 Ry

     new unit-cell volume =    356.73165 a.u.^3 (    52.86218 Ang^3 )
     density =      9.46826 g/cm^3

CELL_PARAMETERS (alat=  9.11000000)
   0.888922769   0.000000000   0.000000000
   0.000000000   0.888922769   0.000000000
   0.000000000   0.000000000   0.597115639

ATOMIC_POSITIONS (crystal)
Sn       0.000003198   0.000003198   0.000000000
Sn       0.500000077   0.500000077   0.500000000
O        0.806107988   0.192895421   0.500000000
O        0.192895421   0.806107988   0.500000000
O        0.306103063   0.306103063   0.000000000
O        0.692890252   0.692890252   0.000000000



     Writing output data file SnO2.save
     Check: negative starting charge=   -0.009566
     NEW-OLD atomic charge density approx. for the potential

     Check: negative/imaginary core charge=   -0.001409    0.000000
     Check: negative starting charge=   -0.001850

     negative rho (up, down):  1.251E+00 0.000E+00
     extrapolated charge   30.16131, renormalised to   52.00000

     total cpu time spent up to now is       14.7 secs

     Self-consistent Calculation

     iteration #  1     ecut=    25.00 Ry     beta= 0.70
     Davidson diagonalization with overlap
     ethr =  1.00E-06,  avg # of iterations = 11.5

     total cpu time spent up to now is       17.5 secs

     total energy              =    -402.09877338 Ry
     Harris-Foulkes estimate   =    -475.53207926 Ry
     estimated scf accuracy    <      58.07137453 Ry

     iteration #  2     ecut=    25.00 Ry     beta= 0.70
     Davidson diagonalization with overlap
     ethr =  1.00E-02,  avg # of iterations =  5.4

     total cpu time spent up to now is       19.0 secs

     total energy              =    -436.60774917 Ry
     Harris-Foulkes estimate   =    -447.70426009 Ry
     estimated scf accuracy    <      17.16915507 Ry

     iteration #  3     ecut=    25.00 Ry     beta= 0.70
     Davidson diagonalization with overlap
     ethr =  1.00E-02,  avg # of iterations =  2.5

     total cpu time spent up to now is       20.1 secs

     total energy              =    -439.50949864 Ry
     Harris-Foulkes estimate   =    -439.89238660 Ry
     estimated scf accuracy    <       0.71606606 Ry

     iteration #  4     ecut=    25.00 Ry     beta= 0.70
     Davidson diagonalization with overlap
     ethr =  1.38E-03,  avg # of iterations =  2.0

     total cpu time spent up to now is       20.8 secs

     total energy              =    -439.45686307 Ry
     Harris-Foulkes estimate   =    -439.56295093 Ry
     estimated scf accuracy    <       0.17545756 Ry

     iteration #  5     ecut=    25.00 Ry     beta= 0.70
     Davidson diagonalization with overlap
     ethr =  3.37E-04,  avg # of iterations =  2.2

     total cpu time spent up to now is       21.7 secs

     total energy              =    -439.46290908 Ry
     Harris-Foulkes estimate   =    -439.48679538 Ry
     estimated scf accuracy    <       0.03248213 Ry

     iteration #  6     ecut=    25.00 Ry     beta= 0.70
     Davidson diagonalization with overlap
     ethr =  6.25E-05,  avg # of iterations =  2.0

     negative rho (up, down):  3.967E-04 0.000E+00

     total cpu time spent up to now is       22.7 secs

     total energy              =    -439.46841037 Ry
     Harris-Foulkes estimate   =    -439.46940761 Ry
     estimated scf accuracy    <       0.00195329 Ry

     iteration #  7     ecut=    25.00 Ry     beta= 0.70
     Davidson diagonalization with overlap
     ethr =  3.76E-06,  avg # of iterations =  2.2

     negative rho (up, down):  3.408E-05 0.000E+00

     total cpu time spent up to now is       23.6 secs

     total energy              =    -439.46876639 Ry
     Harris-Foulkes estimate   =    -439.46881822 Ry
     estimated scf accuracy    <       0.00008321 Ry

     iteration #  8     ecut=    25.00 Ry     beta= 0.70
     Davidson diagonalization with overlap
     ethr =  1.60E-07,  avg # of iterations =  2.0

     total cpu time spent up to now is       24.5 secs

     total energy              =    -439.46877655 Ry
     Harris-Foulkes estimate   =    -439.46877999 Ry
     estimated scf accuracy    <       0.00000588 Ry

     iteration #  9     ecut=    25.00 Ry     beta= 0.70
     Davidson diagonalization with overlap
     ethr =  1.13E-08,  avg # of iterations =  3.0

     total cpu time spent up to now is       25.5 secs

     total energy              =    -439.46877751 Ry
     Harris-Foulkes estimate   =    -439.46877793 Ry
     estimated scf accuracy    <       0.00000078 Ry

     iteration # 10     ecut=    25.00 Ry     beta= 0.70
     Davidson diagonalization with overlap
     ethr =  1.50E-09,  avg # of iterations =  3.0

     total cpu time spent up to now is       26.4 secs

     total energy              =    -439.46877766 Ry
     Harris-Foulkes estimate   =    -439.46877767 Ry
     estimated scf accuracy    <       0.00000003 Ry

     iteration # 11     ecut=    25.00 Ry     beta= 0.70
     Davidson diagonalization with overlap
     ethr =  5.42E-11,  avg # of iterations =  2.5

     total cpu time spent up to now is       27.4 secs

     total energy              =    -439.46877767 Ry
     Harris-Foulkes estimate   =    -439.46877767 Ry
     estimated scf accuracy    <          1.5E-09 Ry

     iteration # 12     ecut=    25.00 Ry     beta= 0.70
     Davidson diagonalization with overlap
     ethr =  2.88E-12,  avg # of iterations =  2.6

     total cpu time spent up to now is       28.4 secs

     total energy              =    -439.46877767 Ry
     Harris-Foulkes estimate   =    -439.46877767 Ry
     estimated scf accuracy    <          3.3E-11 Ry

     iteration # 13     ecut=    25.00 Ry     beta= 0.70
     Davidson diagonalization with overlap
     ethr =  1.00E-13,  avg # of iterations =  2.1

     total cpu time spent up to now is       29.3 secs

     total energy              =    -439.46877767 Ry
     Harris-Foulkes estimate   =    -439.46877767 Ry
     estimated scf accuracy    <          3.0E-12 Ry

     iteration # 14     ecut=    25.00 Ry     beta= 0.70
     Davidson diagonalization with overlap
     ethr =  1.00E-13,  avg # of iterations =  1.0

     total cpu time spent up to now is       30.0 secs

     End of self-consistent calculation

          k = 0.0000 0.0000 0.0000 (  1065 PWs)   bands (ev):

    -7.6632  -7.2398  -5.0425  -4.7603  -4.7602  -4.7045  -4.2145  -4.1862
    -3.8587  -3.8586  -3.6318  -3.5430  -3.5430   0.7300   6.3662  10.2783
    10.2784  10.5868  11.4637  13.4448  14.6918  14.6918  14.7855  15.3789
    15.3789  15.5713

          k = 0.0000 0.0000 0.4187 (  1082 PWs)   bands (ev):

    -7.1724  -6.4452  -6.4433  -6.4198  -5.1134  -4.4375  -4.2583  -4.2582
    -4.1278  -3.8815  -3.8697  -1.5829  -1.5828  -0.3353   5.8779  10.2309
    10.6087  11.0603  11.0606  11.8944  12.5182  12.5183  13.7206  14.7658
    14.9201  14.9202

          k = 0.0000 0.0000-0.8374 (  1058 PWs)   bands (ev):

    -6.9249  -6.9248  -6.0590  -6.0589  -4.1260  -4.1260  -3.7430  -3.7430
    -3.6787  -3.6786  -2.8651  -2.8650   0.0011   0.0011   6.8536   6.8537
    10.1391  10.1391  11.7819  11.7820  13.1636  13.1660  13.1880  13.1905
    14.0859  14.0860

          k = 0.0000 0.2812 0.0000 (  1076 PWs)   bands (ev):

    -7.4886  -7.0768  -5.7986  -5.0104  -4.9012  -4.7480  -4.2405  -4.1300
    -4.0642  -4.0474  -3.9559  -3.9362  -2.7052   0.2320   6.6231   9.4364
    10.9355  10.9466  11.9844  12.8328  13.5448  14.7869  14.8949  15.2611
    15.2784  15.2785

          k = 0.0000 0.2812 0.4187 (  1071 PWs)   bands (ev):

    -7.0890  -6.7181  -6.2160  -6.0976  -4.7890  -4.3776  -4.2431  -4.1002
    -4.0504  -3.8809  -3.8077  -2.4852  -1.1084   0.0475   6.4504   9.4585
     9.7420  10.0440  11.6130  12.2178  12.8414  13.3691  13.6970  14.7250
    14.8589  15.6276

          k = 0.0000 0.2812-0.8374 (  1062 PWs)   bands (ev):

    -7.2575  -7.2573  -5.5227  -5.5225  -4.2374  -4.2373  -3.7756  -3.7756
    -3.7334  -3.7334  -3.4217  -3.4216   0.2651   0.2652   7.1420   7.1422
     9.5502   9.5502  10.4363  10.4364  13.5149  13.5149  13.8796  13.8796
    15.0330  15.0331

          k = 0.0000-0.5625 0.0000 (  1078 PWs)   bands (ev):

    -7.1057  -7.1011  -5.7247  -5.7225  -4.8772  -4.8767  -4.2697  -4.2696
    -4.1549  -4.1543  -4.0683  -4.0665  -0.9670  -0.9612   7.8006   7.8090
    11.7919  11.7923  11.9642  11.9726  13.5350  13.5387  15.0817  15.0862
    15.1914  15.1924

          k = 0.0000-0.5625 0.4187 (  1064 PWs)   bands (ev):

    -6.9132  -6.9088  -6.0789  -6.0637  -4.2804  -4.2767  -4.0110  -4.0095
    -3.9189  -3.9141  -3.6940  -3.6859  -0.2280  -0.2218   7.9670   7.9682
     9.3053   9.3116  11.7966  11.8039  13.6879  13.6905  14.4551  14.4558
    15.3430  15.3465

          k = 0.0000-0.5625-0.8374 (  1096 PWs)   bands (ev):

    -7.5988  -7.5987  -4.9979  -4.9973  -4.5089  -4.5086  -4.4693  -4.4689
    -4.1803  -4.1802  -4.0938  -4.0937   0.2970   0.2970   7.7418   7.7419
     8.3086   8.3086   9.9691   9.9692  13.5943  13.5944  13.8810  13.8810
    16.0202  16.0203

          k = 0.2812 0.2812 0.0000 (  1056 PWs)   bands (ev):

    -7.4677  -6.9575  -5.8579  -4.6417  -4.6312  -4.5673  -4.1339  -4.0045
    -3.8454  -3.8190  -3.7044  -3.6045  -2.6635  -0.2032   7.2069  10.2934
    10.3689  11.2187  12.2408  12.5515  13.0115  14.6166  14.7940  15.0558
    15.2394  15.3667

          k = 0.2812 0.2812 0.4187 (  1071 PWs)   bands (ev):

    -7.0646  -6.6864  -6.4034  -6.0718  -4.5785  -4.3553  -4.2436  -4.2034
    -3.9984  -3.7858  -3.7804  -2.1888  -1.6063  -0.0698   6.8901   8.3164
     9.8968  11.2194  11.3787  11.8040  12.6710  13.4252  13.9432  14.6145
    15.1839  15.5667

          k = 0.2812 0.2812-0.8374 (  1072 PWs)   bands (ev):

    -7.4572  -7.0096  -6.2503  -4.8338  -4.5216  -4.3132  -4.1818  -3.8988
    -3.8705  -3.8385  -3.8052  -2.8903  -0.0438   0.4704   6.2380   7.5512
     9.0204   9.4662   9.5073  12.6702  13.1234  13.7970  13.8143  14.1012
    14.2748  15.8107

          k = 0.2812-0.5625 0.0000 (  1062 PWs)   bands (ev):

    -7.2571  -7.2547  -5.2208  -5.2205  -4.6940  -4.6934  -4.0634  -4.0624
    -3.9283  -3.9275  -3.8932  -3.8927  -1.4993  -1.4958   8.7443   8.7508
    11.6899  11.6964  11.8288  11.8294  13.4967  13.4990  14.7502  14.7517
    15.2063  15.2065

          k = 0.2812-0.5625 0.4187 (  1068 PWs)   bands (ev):

    -6.8892  -6.8859  -6.2648  -6.2553  -4.2513  -4.2501  -4.1796  -4.1779
    -3.8796  -3.8796  -3.2890  -3.2788  -0.7675  -0.7612   7.7011   7.7017
    10.3281  10.3324  11.2609  11.2646  13.8778  13.8801  14.3951  14.3975
    15.1970  15.1998

          k = 0.2812-0.5625-0.8374 (  1072 PWs)   bands (ev):

    -7.3713  -7.3711  -5.5854  -5.5853  -4.3647  -4.3647  -3.9638  -3.9638
    -3.8331  -3.8330  -3.2904  -3.2903   0.1490   0.1490   6.3133   6.3134
     9.1657   9.1658  10.9933  10.9934  14.0465  14.0466  14.2251  14.2252
    15.4076  15.4077

          k =-0.5625-0.5625 0.0000 (  1084 PWs)   bands (ev):

    -7.4125  -7.4124  -4.9960  -4.9959  -4.7702  -4.7697  -4.2762  -4.2762
    -4.2095  -4.2090  -4.1237  -4.1237  -2.1328  -2.1327  10.4975  10.4991
    10.5635  10.5651  11.7996  11.7996  12.9883  12.9883  14.5318  14.5319
    15.1430  15.1431

          k =-0.5625-0.5625 0.4187 (  1060 PWs)   bands (ev):

    -6.8211  -6.8209  -6.3031  -6.3030  -4.2775  -4.2775  -4.0010  -4.0009
    -3.9898  -3.9898  -2.3400  -2.3398  -1.5591  -1.5589   7.6632   7.6633
    10.8405  10.8405  11.7176  11.7176  13.3058  13.3059  14.5101  14.5102
    15.0751  15.0752

          k =-0.5625-0.5625-0.8374 (  1072 PWs)   bands (ev):

    -7.1031  -7.1029  -6.1873  -6.1871  -4.2395  -4.2395  -3.9991  -3.9991
    -3.9472  -3.9472  -2.6959  -2.6958  -0.1502  -0.1501   5.6449   5.6450
     8.9574   8.9575  13.2464  13.2464  13.4874  13.4874  14.3655  14.3656
    14.5048  14.5049

          k = 0.2812-0.2812 0.0000 (  1056 PWs)   bands (ev):

    -7.4678  -6.9574  -5.8577  -4.6418  -4.6318  -4.5672  -4.1335  -4.0045
    -3.8454  -3.8191  -3.7044  -3.6045  -2.6635  -0.2032   7.2069  10.2925
    10.3698  11.2187  12.2408  12.5516  13.0115  14.6166  14.7940  15.0558
    15.2395  15.3667

          k = 0.2812-0.2812 0.4187 (  1071 PWs)   bands (ev):

    -7.0646  -6.6864  -6.4037  -6.0716  -4.5785  -4.3553  -4.2436  -4.2034
    -3.9984  -3.7861  -3.7801  -2.1889  -1.6061  -0.0698   6.8901   8.3164
     9.8969  11.2194  11.3787  11.8041  12.6709  13.4251  13.9432  14.6145
    15.1839  15.5667

          k = 0.2812-0.2812-0.8374 (  1072 PWs)   bands (ev):

    -7.4571  -7.0098  -6.2505  -4.8326  -4.5229  -4.3132  -4.1816  -3.8989
    -3.8705  -3.8385  -3.8052  -2.8902  -0.0438   0.4704   6.2381   7.5511
     9.0202   9.4664   9.5073  12.6702  13.1234  13.7971  13.8141  14.1012
    14.2748  15.8108

     highest occupied level (ev):    16.0203

!    total energy              =    -439.46877767 Ry
     Harris-Foulkes estimate   =    -439.46877767 Ry
     estimated scf accuracy    <          2.2E-13 Ry

     The total energy is the sum of the following terms:

     one-electron contribution =     -56.72665706 Ry
     hartree contribution      =      78.93887821 Ry
     xc contribution           =    -121.61597016 Ry
     ewald contribution        =    -340.06502865 Ry

     convergence has been achieved in  14 iterations

     Forces acting on atoms (cartesian axes, Ry/au):

     atom    1 type  1   force =    -0.00329355   -0.00329355    0.00000000
     atom    2 type  1   force =    -0.00263662   -0.00263662    0.00000000
     atom    3 type  2   force =    -0.04919547    0.04832490    0.00000000
     atom    4 type  2   force =     0.04832490   -0.04919547    0.00000000
     atom    5 type  2   force =    -0.04535638   -0.04535638    0.00000000
     atom    6 type  2   force =     0.05215713    0.05215713    0.00000000

     Total force =     0.138209     Total SCF correction =     0.000003


     Computing stress (Cartesian axis) and pressure

          total   stress  (Ry/bohr**3)                   (kbar)     P=-7236.62
  -0.05032975   0.00000035   0.00000000      -7403.76      0.05      0.00
   0.00000035  -0.05032975   0.00000000          0.05  -7403.76      0.00
   0.00000000   0.00000000  -0.04692114          0.00      0.00  -6902.34


     number of scf cycles    =   2
     number of bfgs steps    =   1

     enthalpy old            =    -430.4603204268 Ry
     enthalpy new            =    -439.4687776656 Ry

     CASE: enthalpy_new < enthalpy_old

     new trust radius        =       0.7080323239 bohr
     new conv_thr            =            1.0E-12 Ry

     new unit-cell volume =    218.12461 a.u.^3 (    32.32273 Ang^3 )
     density =     15.48486 g/cm^3

CELL_PARAMETERS (alat=  9.11000000)
   0.722306921   0.000000000   0.000000000
   0.000000000   0.722306921   0.000000000
   0.000000000   0.000000000   0.552975627

ATOMIC_POSITIONS (crystal)
Sn      -0.000682727  -0.000682727   0.000000000
Sn       0.499491204   0.499491204   0.500000000
O        0.794886476   0.203894079   0.500000000
O        0.203894079   0.794886476   0.500000000
O        0.295700493   0.295700493   0.000000000
O        0.704710475   0.704710475   0.000000000



     Writing output data file SnO2.save
     Check: negative starting charge=   -0.001850
     NEW-OLD atomic charge density approx. for the potential

     Check: negative/imaginary core charge=   -0.000520    0.000000

     negative rho (up, down):  2.413E+00 0.000E+00
     extrapolated charge   18.95863, renormalised to   52.00000

     total cpu time spent up to now is       31.6 secs

     Self-consistent Calculation

     iteration #  1     ecut=    25.00 Ry     beta= 0.70
     Davidson diagonalization with overlap
     ethr =  1.00E-06,  avg # of iterations = 10.3

     total cpu time spent up to now is       34.6 secs

     total energy              =    -392.78644921 Ry
     Harris-Foulkes estimate   =    -482.90929237 Ry
     estimated scf accuracy    <     128.71366412 Ry

     iteration #  2     ecut=    25.00 Ry     beta= 0.70
     Davidson diagonalization with overlap
     ethr =  1.00E-02,  avg # of iterations =  5.0

     total cpu time spent up to now is       36.2 secs

     total energy              =    -437.82921754 Ry
     Harris-Foulkes estimate   =    -448.40519329 Ry
     estimated scf accuracy    <      15.35766526 Ry

     iteration #  3     ecut=    25.00 Ry     beta= 0.70
     Davidson diagonalization with overlap
     ethr =  1.00E-02,  avg # of iterations =  2.9

     total cpu time spent up to now is       37.2 secs

     total energy              =    -441.21729321 Ry
     Harris-Foulkes estimate   =    -441.38710310 Ry
     estimated scf accuracy    <       0.32413347 Ry

     iteration #  4     ecut=    25.00 Ry     beta= 0.70
     Davidson diagonalization with overlap
     ethr =  6.23E-04,  avg # of iterations =  2.0

     total cpu time spent up to now is       38.1 secs

     total energy              =    -441.23043111 Ry
     Harris-Foulkes estimate   =    -441.25260537 Ry
     estimated scf accuracy    <       0.03815891 Ry

     iteration #  5     ecut=    25.00 Ry     beta= 0.70
     Davidson diagonalization with overlap
     ethr =  7.34E-05,  avg # of iterations =  2.0

     total cpu time spent up to now is       38.9 secs

     total energy              =    -441.23247551 Ry
     Harris-Foulkes estimate   =    -441.23411474 Ry
     estimated scf accuracy    <       0.00268177 Ry

     iteration #  6     ecut=    25.00 Ry     beta= 0.70
     Davidson diagonalization with overlap
     ethr =  5.16E-06,  avg # of iterations =  2.9

     total cpu time spent up to now is       39.9 secs

     total energy              =    -441.23302831 Ry
     Harris-Foulkes estimate   =    -441.23329311 Ry
     estimated scf accuracy    <       0.00047779 Ry

     iteration #  7     ecut=    25.00 Ry     beta= 0.70
     Davidson diagonalization with overlap
     ethr =  9.19E-07,  avg # of iterations =  2.7

     total cpu time spent up to now is       40.9 secs

     total energy              =    -441.23313005 Ry
     Harris-Foulkes estimate   =    -441.23313170 Ry
     estimated scf accuracy    <       0.00000410 Ry

     iteration #  8     ecut=    25.00 Ry     beta= 0.70
     Davidson diagonalization with overlap
     ethr =  7.89E-09,  avg # of iterations =  3.0

     total cpu time spent up to now is       42.0 secs

     total energy              =    -441.23313113 Ry
     Harris-Foulkes estimate   =    -441.23313149 Ry
     estimated scf accuracy    <       0.00000063 Ry

     iteration #  9     ecut=    25.00 Ry     beta= 0.70
     Davidson diagonalization with overlap
     ethr =  1.21E-09,  avg # of iterations =  3.0

     total cpu time spent up to now is       42.9 secs

     total energy              =    -441.23313126 Ry
     Harris-Foulkes estimate   =    -441.23313128 Ry
     estimated scf accuracy    <       0.00000004 Ry

     iteration # 10     ecut=    25.00 Ry     beta= 0.70
     Davidson diagonalization with overlap
     ethr =  7.83E-11,  avg # of iterations =  2.0

     total cpu time spent up to now is       43.9 secs

     total energy              =    -441.23313126 Ry
     Harris-Foulkes estimate   =    -441.23313126 Ry
     estimated scf accuracy    <          9.2E-10 Ry

     iteration # 11     ecut=    25.00 Ry     beta= 0.70
     Davidson diagonalization with overlap
     ethr =  1.76E-12,  avg # of iterations =  2.2

     total cpu time spent up to now is       44.8 secs

     total energy              =    -441.23313126 Ry
     Harris-Foulkes estimate   =    -441.23313126 Ry
     estimated scf accuracy    <          6.5E-11 Ry

     iteration # 12     ecut=    25.00 Ry     beta= 0.70
     Davidson diagonalization with overlap
     ethr =  1.26E-13,  avg # of iterations =  2.1

     total cpu time spent up to now is       45.8 secs

     total energy              =    -441.23313126 Ry
     Harris-Foulkes estimate   =    -441.23313126 Ry
     estimated scf accuracy    <          4.0E-12 Ry

     iteration # 13     ecut=    25.00 Ry     beta= 0.70
     Davidson diagonalization with overlap
     ethr =  1.00E-13,  avg # of iterations =  1.0

     total cpu time spent up to now is       46.5 secs

     End of self-consistent calculation

          k = 0.0000 0.0000 0.0000 (  1065 PWs)   bands (ev):

    -0.0569   0.2347   4.4047   5.9645   6.2301   6.5885   6.5886   7.3350
     7.3365   8.0934   8.8318   8.8367   8.8370  15.4865  19.0645  21.2456
    21.2457  21.8493  21.8725  25.0631  26.2491  26.2494  26.9957  28.7549
    28.7550  31.0764

          k = 0.0000 0.0000 0.4521 (  1082 PWs)   bands (ev):

     0.5611   0.6144   4.4719   4.4728   5.2432   6.3805   7.0049   7.3603
     7.3605   7.9029   8.7633  11.2724  11.2727  13.9613  16.1088  22.0927
    22.3205  22.3208  22.4472  24.6228  24.7228  24.7255  25.4174  27.3193
    27.3198  28.9861

          k = 0.0000 0.0000-0.9042 (  1058 PWs)   bands (ev):

     1.0956   1.0965   3.5543   3.5544   7.1346   7.1354   7.2848   7.2853
     7.5439   7.5443   9.7132   9.7133  13.4720  13.4725  17.7668  17.7671
    21.6550  21.6555  23.1948  23.1952  25.0234  25.0234  26.3970  26.4013
    26.7691  26.7738

          k = 0.0000 0.3461 0.0000 (  1076 PWs)   bands (ev):

     0.4893   0.5098   3.1892   4.6849   6.3275   6.7650   6.7828   7.8098
     7.8630   8.0758   8.2897   8.3885   9.9318  15.8156  18.6510  20.1577
    20.6232  21.9926  23.5262  24.7596  25.0696  26.1608  27.7124  27.7752
    28.3423  31.0102

          k = 0.0000 0.3461 0.4521 (  1071 PWs)   bands (ev):

     0.7178   0.7864   3.7957   4.3214   5.8686   6.5484   7.0521   7.3361
     7.3857   7.9275   8.8427   9.7798  11.9348  15.2183  17.1424  19.9326
    21.2735  21.6456  22.1510  24.4836  24.7670  25.2201  26.1015  26.1494
    28.5097  30.5882

          k = 0.0000 0.3461-0.9042 (  1062 PWs)   bands (ev):

     0.8252   0.8260   4.3163   4.3168   6.4114   6.4117   7.4233   7.4236
     7.8567   7.8568   9.3182   9.3182  13.7316  13.7320  18.2220  18.2223
    20.3637  20.3640  23.2528  23.2529  24.2430  24.2430  25.1214  25.1215
    29.8524  29.8529

          k = 0.0000-0.6922 0.0000 (  1078 PWs)   bands (ev):

     1.1970   1.1993   2.6738   2.6766   7.0404   7.0420   7.1003   7.1049
     7.8628   7.8633   8.0857   8.0876  13.2228  13.2483  19.2229  19.2355
    22.6705  22.6904  23.0251  23.0277  24.7687  24.7708  27.5980  27.6167
    29.8867  29.9042

          k = 0.0000-0.6922 0.4521 (  1064 PWs)   bands (ev):

     0.9263   0.9273   3.7638   3.7768   6.6480   6.6632   7.0284   7.0310
     7.7119   7.7157   8.7594   8.7599  14.2028  14.2033  19.2216  19.2244
    19.8919  19.8978  22.8672  22.8684  25.4340  25.4361  25.8977  25.9054
    30.6419  30.6579

          k = 0.0000-0.6922-0.9042 (  1096 PWs)   bands (ev):

     0.5939   0.5946   5.6688   5.6907   5.7229   5.7440   6.8038   6.8046
     7.7163   7.7166   9.1409   9.1410  14.2391  14.2393  17.9011  17.9013
    20.1942  20.1943  21.7431  21.7433  24.5136  24.5136  25.1315  25.1317
    31.3819  31.3823

          k = 0.3461 0.3461 0.0000 (  1056 PWs)   bands (ev):

     0.2780   1.2444   2.4697   5.8920   5.9423   6.5697   7.1130   7.4495
     7.8797   7.9718   7.9905   8.7143  10.0764  14.5651  18.9825  20.7248
    21.4791  22.3005  22.7687  24.1416  26.1476  26.3778  26.8789  27.4757
    28.5468  30.5306

          k = 0.3461 0.3461 0.4521 (  1071 PWs)   bands (ev):

     0.7207   0.9458   3.6287   4.1821   6.4236   6.6409   6.9123   7.3588
     7.4922   7.8753   8.7613  10.3082  11.0095  14.8277  18.0419  18.4822
    21.3412  21.3777  23.1753  23.2158  24.9222  25.7706  25.8259  27.9109
    27.9321  30.6975

          k = 0.3461 0.3461-0.9042 (  1072 PWs)   bands (ev):

     0.6233   1.1824   3.3016   5.4367   6.3325   6.4021   6.6776   7.5265
     7.8315   9.1352   9.1684   9.5589  13.1947  13.8308  16.5200  18.7477
    19.5512  19.6981  21.9156  24.4350  24.6489  24.8637  26.0076  26.6585
    28.6288  30.7838

          k = 0.3461-0.6922 0.0000 (  1062 PWs)   bands (ev):

     0.7132   0.7146   3.8436   3.8473   6.6949   6.6956   7.1732   7.1755
     7.8046   7.8059   8.4025   8.4031  11.7193  11.7328  20.8943  20.8957
    22.2912  22.3038  22.3827  22.3859  25.9087  25.9090  27.9584  27.9685
    28.8463  28.8586

          k = 0.3461-0.6922 0.4521 (  1068 PWs)   bands (ev):

     0.8931   0.8941   3.8790   3.8880   6.5883   6.5963   7.2253   7.2274
     7.6952   7.6975   9.2821   9.2869  12.6428  12.6450  18.6384  18.6416
    21.3114  21.3121  22.4578  22.4622  25.7010  25.7023  27.0021  27.0076
    29.8520  29.8652

          k = 0.3461-0.6922-0.9042 (  1072 PWs)   bands (ev):

     0.8743   0.8751   3.9943   3.9947   6.4975   6.4979   7.7324   7.7328
     8.4612   8.4615   9.1997   9.1997  13.8370  13.8373  16.1646  16.1649
    19.0951  19.0953  24.4355  24.4356  25.0968  25.0968  25.7853  25.7853
    30.5424  30.5429

          k =-0.6922-0.6922 0.0000 (  1084 PWs)   bands (ev):

     0.4219   0.4226   5.8917   5.9301   5.9467   5.9850   6.4380   6.4381
     7.4954   7.4959   8.6523   8.6527  10.6733  10.6734  20.8717  20.8718
    21.9256  21.9259  24.0051  24.0054  26.5741  26.5742  27.1937  27.1943
    28.2893  28.2893

          k =-0.6922-0.6922 0.4521 (  1060 PWs)   bands (ev):

     0.8623   0.8631   4.0059   4.0061   7.0276   7.0286   7.1977   7.1984
     7.6194   7.6199  10.4286  10.4299  10.8076  10.8091  18.5107  18.5108
    20.6231  20.6232  24.0106  24.0108  26.3768  26.3768  27.7890  27.7895
    28.6330  28.6338

          k =-0.6922-0.6922-0.9042 (  1072 PWs)   bands (ev):

     1.2688   1.2698   3.0754   3.0754   6.7785   6.7790   7.6888   7.6893
     8.9976   8.9978  10.2658  10.2660  12.9170  12.9175  14.7697  14.7699
    18.5387  18.5388  25.9465  25.9466  26.1153  26.1153  26.8386  26.8392
    29.0016  29.0027

          k = 0.3461-0.3461 0.0000 (  1056 PWs)   bands (ev):

     0.2775   1.2454   2.4695   5.8753   5.9582   6.5696   7.1130   7.4502
     7.8796   7.9722   7.9905   8.7139  10.0764  14.5651  18.9822  20.7249
    21.4792  22.3003  22.7691  24.1416  26.1476  26.3770  26.8799  27.4757
    28.5469  30.5305

          k = 0.3461-0.3461 0.4521 (  1071 PWs)   bands (ev):

     0.7202   0.9464   3.6287   4.1821   6.4236   6.6409   6.9124   7.3587
     7.4921   7.8754   8.7613  10.3075  11.0105  14.8277  18.0420  18.4819
    21.3407  21.3782  23.1754  23.2159  24.9223  25.7698  25.8266  27.9001
    27.9431  30.6974

          k = 0.3461-0.3461-0.9042 (  1072 PWs)   bands (ev):

     0.6239   1.1814   3.3016   5.4389   6.3305   6.4025   6.6774   7.5260
     7.8317   9.1353   9.1684   9.5588  13.1952  13.8306  16.5203  18.7473
    19.5514  19.6978  21.9157  24.4350  24.6489  24.8638  26.0075  26.6578
    28.6299  30.7834

     highest occupied level (ev):    31.3823

!    total energy              =    -441.23313126 Ry
     Harris-Foulkes estimate   =    -441.23313126 Ry
     estimated scf accuracy    <          1.0E-13 Ry

     The total energy is the sum of the following terms:

     one-electron contribution =      29.50164028 Ry
     hartree contribution      =      61.40580339 Ry
     xc contribution           =    -127.47749123 Ry
     ewald contribution        =    -404.66308370 Ry

     convergence has been achieved in  13 iterations

     Forces acting on atoms (cartesian axes, Ry/au):

     atom    1 type  1   force =     0.05433782    0.05433782    0.00000000
     atom    2 type  1   force =     0.00826060    0.00826060    0.00000000
     atom    3 type  2   force =     0.65045612   -0.64650802    0.00000000
     atom    4 type  2   force =    -0.64650802    0.65045612    0.00000000
     atom    5 type  2   force =     0.61554050    0.61554050    0.00000000
     atom    6 type  2   force =    -0.68208701   -0.68208701    0.00000000

     Total force =     1.837509     Total SCF correction =     0.000001


     Computing stress (Cartesian axis) and pressure

          total   stress  (Ry/bohr**3)                   (kbar)     P= 6074.58
   0.05406982   0.00000379   0.00000000       7953.94      0.56      0.00
   0.00000379   0.05406982   0.00000000          0.56   7953.94      0.00
  -0.00000000   0.00000000   0.01574280         -0.00      0.00   2315.85


     number of scf cycles    =   3
     number of bfgs steps    =   2

     enthalpy old            =    -439.4687776656 Ry
     enthalpy new            =    -441.2331312634 Ry

     CASE: enthalpy_new < enthalpy_old

     new trust radius        =       0.7042393374 bohr
     new conv_thr            =            1.0E-12 Ry

     new unit-cell volume =    231.58505 a.u.^3 (    34.31736 Ang^3 )
     density =     14.58483 g/cm^3

CELL_PARAMETERS (alat=  9.11000000)
   0.852837320   0.000000000   0.000000000
   0.000000000   0.852837320   0.000000000
   0.000000000   0.000000000   0.421136614

ATOMIC_POSITIONS (crystal)
Sn       0.001723892   0.001723892   0.000000000
Sn       0.499827576   0.499827576   0.500000000
O        0.823682171   0.175270146   0.500000000
O        0.175270146   0.823682171   0.500000000
O        0.322968112   0.322968112   0.000000000
O        0.674528103   0.674528103   0.000000000



     Writing output data file SnO2.save
     NEW-OLD atomic charge density approx. for the potential

     Check: negative/imaginary core charge=   -0.000775    0.000000
     extrapolated charge   55.02222, renormalised to   52.00000

     total cpu time spent up to now is       47.8 secs

     Self-consistent Calculation

     iteration #  1     ecut=    25.00 Ry     beta= 0.70
     Davidson diagonalization with overlap
     ethr =  1.00E-06,  avg # of iterations =  8.6

     total cpu time spent up to now is       50.4 secs

     total energy              =    -437.41387953 Ry
     Harris-Foulkes estimate   =    -433.17873199 Ry
     estimated scf accuracy    <       0.45208936 Ry

     iteration #  2     ecut=    25.00 Ry     beta= 0.70
     Davidson diagonalization with overlap
     ethr =  8.69E-04,  avg # of iterations =  2.6

     total cpu time spent up to now is       51.4 secs

     total energy              =    -437.63263110 Ry
     Harris-Foulkes estimate   =    -437.74697733 Ry
     estimated scf accuracy    <       0.20356092 Ry

     iteration #  3     ecut=    25.00 Ry     beta= 0.70
     Davidson diagonalization with overlap
     ethr =  3.91E-04,  avg # of iterations =  2.0

     total cpu time spent up to now is       52.3 secs

     total energy              =    -437.65579358 Ry
     Harris-Foulkes estimate   =    -437.65930727 Ry
     estimated scf accuracy    <       0.00865212 Ry

     iteration #  4     ecut=    25.00 Ry     beta= 0.70
     Davidson diagonalization with overlap
     ethr =  1.66E-05,  avg # of iterations =  2.1

     total cpu time spent up to now is       53.3 secs

     total energy              =    -437.65722184 Ry
     Harris-Foulkes estimate   =    -437.65721215 Ry
     estimated scf accuracy    <       0.00019568 Ry

     iteration #  5     ecut=    25.00 Ry     beta= 0.70
     Davidson diagonalization with overlap
     ethr =  3.76E-07,  avg # of iterations =  2.1

     total cpu time spent up to now is       54.2 secs

     total energy              =    -437.65724761 Ry
     Harris-Foulkes estimate   =    -437.65726899 Ry
     estimated scf accuracy    <       0.00003687 Ry

     iteration #  6     ecut=    25.00 Ry     beta= 0.70
     Davidson diagonalization with overlap
     ethr =  7.09E-08,  avg # of iterations =  2.0

     total cpu time spent up to now is       55.2 secs

     total energy              =    -437.65725401 Ry
     Harris-Foulkes estimate   =    -437.65725452 Ry
     estimated scf accuracy    <       0.00000089 Ry

     iteration #  7     ecut=    25.00 Ry     beta= 0.70
     Davidson diagonalization with overlap
     ethr =  1.71E-09,  avg # of iterations =  2.2

     total cpu time spent up to now is       56.2 secs

     total energy              =    -437.65725428 Ry
     Harris-Foulkes estimate   =    -437.65725430 Ry
     estimated scf accuracy    <       0.00000005 Ry

     iteration #  8     ecut=    25.00 Ry     beta= 0.70
     Davidson diagonalization with overlap
     ethr =  1.03E-10,  avg # of iterations =  2.1

     total cpu time spent up to now is       57.2 secs

     total energy              =    -437.65725429 Ry
     Harris-Foulkes estimate   =    -437.65725429 Ry
     estimated scf accuracy    <          8.5E-09 Ry

     iteration #  9     ecut=    25.00 Ry     beta= 0.70
     Davidson diagonalization with overlap
     ethr =  1.63E-11,  avg # of iterations =  2.0

     total cpu time spent up to now is       58.1 secs

     total energy              =    -437.65725429 Ry
     Harris-Foulkes estimate   =    -437.65725429 Ry
     estimated scf accuracy    <          1.1E-09 Ry

     iteration # 10     ecut=    25.00 Ry     beta= 0.70
     Davidson diagonalization with overlap
     ethr =  2.08E-12,  avg # of iterations =  2.0

     total cpu time spent up to now is       59.0 secs

     total energy              =    -437.65725429 Ry
     Harris-Foulkes estimate   =    -437.65725429 Ry
     estimated scf accuracy    <          4.3E-11 Ry

     iteration # 11     ecut=    25.00 Ry     beta= 0.70
     Davidson diagonalization with overlap
     ethr =  1.00E-13,  avg # of iterations =  2.1

     total cpu time spent up to now is       60.0 secs

     total energy              =    -437.65725429 Ry
     Harris-Foulkes estimate   =    -437.65725429 Ry
     estimated scf accuracy    <          1.0E-12 Ry

     iteration # 12     ecut=    25.00 Ry     beta= 0.70
     Davidson diagonalization with overlap
     ethr =  1.00E-13,  avg # of iterations =  1.0

     total cpu time spent up to now is       60.7 secs

     End of self-consistent calculation

          k = 0.0000 0.0000 0.0000 (  1065 PWs)   bands (ev):

    -5.5763  -5.2752   0.9415   1.2093   1.7436   1.7494   3.4598   3.4719
     3.9634   5.1197   5.8162   5.8164   6.0100  10.7984  15.9201  15.9226
    17.8410  20.5856  22.2691  22.2724  22.6365  23.6427  25.4218  25.8620
    30.2096  30.2137

          k = 0.0000 0.0000 0.5936 (  1082 PWs)   bands (ev):

    -3.5375  -3.5313  -2.0614  -1.9038   2.5380   2.5727   3.3404   3.3418
     5.0242   5.6777   5.7790   9.1574   9.1594  10.3953  16.0179  19.4190
    19.4193  20.6292  20.7608  21.7557  23.0505  23.0553  24.2039  24.5618
    27.2923  27.2970

          k = 0.0000 0.0000-1.1873 (  1058 PWs)   bands (ev):

    -5.9352  -5.9304   1.6879   1.6922   3.4493   3.4578   3.6945   3.6972
     6.3042   6.3058   6.9472   6.9483  14.4144  14.4155  16.3991  16.4020
    16.7883  16.7924  21.5199  21.5225  22.2427  22.2477  24.4744  24.4763
    28.6949  28.6953

          k = 0.0000 0.2931 0.0000 (  1076 PWs)   bands (ev):

    -5.4940  -5.2784   1.1690   1.3993   1.7080   1.7216   2.9050   3.0112
     4.3042   5.0688   5.7428   5.7465   6.7753  10.2724  15.4245  15.7432
    19.2648  21.2163  21.7734  22.7505  22.7982  23.5293  25.1023  25.2730
    30.0856  30.1400

          k = 0.0000 0.2931 0.5936 (  1071 PWs)   bands (ev):

    -3.5658  -3.5345  -1.9835  -1.8467   2.5935   2.6144   3.5108   3.5994
     5.0608   5.4795   5.7647   7.5193   9.8103  11.4539  16.2045  18.7190
    19.1330  20.2330  21.0046  22.9565  23.1861  23.3274  23.8712  24.3012
    27.1671  27.4468

          k = 0.0000 0.2931-1.1873 (  1062 PWs)   bands (ev):

    -5.9976  -5.9927   1.6169   1.6208   3.5673   3.5699   3.8117   3.8149
     6.2993   6.3007   6.6002   6.6010  14.1045  14.1049  16.5382  16.5424
    17.2578  17.2595  21.2482  21.2490  21.6961  21.7025  24.3448  24.3461
    29.6169  29.6182

          k = 0.0000-0.5863 0.0000 (  1078 PWs)   bands (ev):

    -5.3764  -5.3709   1.4781   1.4867   1.7600   1.7698   2.5029   2.5309
     4.6524   4.7016   5.7763   5.7908   8.6554   8.6933  15.3869  15.4540
    20.6196  20.6463  23.1395  23.1718  23.2354  23.2413  23.9627  23.9749
    30.0510  30.0727

          k = 0.0000-0.5863 0.5936 (  1064 PWs)   bands (ev):

    -3.5752  -3.5689  -1.9185  -1.9074   2.5394   2.5427   3.7518   3.7542
     5.2868   5.2909   5.8775   5.9577  10.9921  11.0543  17.1885  17.2872
    19.4028  19.4285  22.1284  22.1576  23.6754  23.7392  23.8520  23.9000
    27.3443  27.3541

          k = 0.0000-0.5863-1.1873 (  1096 PWs)   bands (ev):

    -6.0571  -6.0522   1.4815   1.4849   3.5609   3.5631   4.0028   4.0111
     6.0528   6.0538   6.1104   6.1113  13.8807  13.8810  16.3322  16.3363
    18.2344  18.2359  20.0642  20.0643  21.8237  21.8281  24.1060  24.1072
    30.2815  30.2846

          k = 0.2931 0.2931 0.0000 (  1056 PWs)   bands (ev):

    -5.4355  -5.2869   1.2395   1.4981   1.7698   1.8239   2.5440   3.2293
     4.5554   5.2147   5.8170   5.8614   7.0820   9.6274  15.3904  15.8978
    19.9157  21.4256  22.1963  22.7666  22.8799  23.4391  24.7798  25.0418
    30.1035  30.2106

          k = 0.2931 0.2931 0.5936 (  1071 PWs)   bands (ev):

    -3.5862  -3.5509  -1.9559  -1.8661   2.5845   2.6417   3.3314   3.7527
     5.2490   5.5580   5.7709   7.8098   9.0078  11.3641  16.7323  18.4615
    19.5721  19.9947  21.3660  22.8659  23.0501  23.4912  23.7970  23.9720
    27.3411  27.4145

          k = 0.2931 0.2931-1.1873 (  1072 PWs)   bands (ev):

    -6.0588  -6.0197   1.5051   1.6368   3.1003   3.2386   4.1472   4.1740
     6.2317   6.3057   6.3107   6.7413  13.8936  14.2130  15.9364  16.5034
    16.5909  18.1180  20.1584  21.8148  21.8187  22.5516  24.2289  24.3021
    28.8491  30.2038

          k = 0.2931-0.5863 0.0000 (  1062 PWs)   bands (ev):

    -5.3586  -5.3527   1.3999   1.4065   1.7996   1.8054   2.7985   2.8202
     4.7912   4.8244   5.8494   5.8510   8.2120   8.2318  15.6913  15.7274
    21.0041  21.0086  23.1469  23.1691  23.3416  23.3720  23.8642  23.9105
    30.1214  30.1313

          k = 0.2931-0.5863 0.5936 (  1068 PWs)   bands (ev):

    -3.5835  -3.5774  -1.8961  -1.8887   2.6591   2.6613   3.5202   3.5228
     5.4939   5.5082   6.4804   6.5689  10.0542  10.1229  18.0235  18.1023
    19.5397  19.5534  22.1170  22.1364  23.2940  23.3646  23.9903  24.0142
    27.3385  27.3429

          k = 0.2931-0.5863-1.1873 (  1072 PWs)   bands (ev):

    -6.0425  -6.0375   1.5587   1.5621   3.1721   3.1740   4.3891   4.3930
     6.2310   6.2323   6.4409   6.4421  13.9499  13.9509  16.2587  16.2643
    16.8203  16.8208  21.8585  21.8619  22.0975  22.1069  24.2198  24.2214
    29.8023  29.8040

          k =-0.5863-0.5863 0.0000 (  1084 PWs)   bands (ev):

    -5.3618  -5.3562   1.2755   1.2808   1.7267   1.7323   3.0960   3.1029
     4.7066   4.7126   5.7762   5.7764   7.7898   7.7923  15.8724  15.8730
    21.8692  21.8722  22.5277  22.5320  23.1018  23.1061  24.0579  24.0613
    30.1009  30.1045

          k =-0.5863-0.5863 0.5936 (  1060 PWs)   bands (ev):

    -3.5826  -3.5764  -1.9429  -1.9399   2.6121   2.6144   3.2892   3.2907
     5.3896   5.3911   7.4572   7.4693   8.8267   8.8340  18.7122  18.7136
    19.8178  19.8200  22.0145  22.0195  23.1848  23.1885  23.6985  23.7001
    27.2416  27.2457

          k =-0.5863-0.5863-1.1873 (  1072 PWs)   bands (ev):

    -6.0441  -6.0390   1.6494   1.6536   2.8055   2.8082   4.4896   4.4932
     6.2386   6.2398   6.6533   6.6541  14.0406  14.0435  15.6983  15.7061
    16.3392  16.3393  22.2435  22.2465  23.1080  23.1106  24.1447  24.1451
    29.1123  29.1132

          k = 0.2931-0.2931 0.0000 (  1056 PWs)   bands (ev):

    -5.4363  -5.2862   1.2346   1.5055   1.7640   1.8298   2.5369   3.2370
     4.5537   5.2125   5.8168   5.8615   7.0820   9.6291  15.3888  15.8987
    19.9132  21.4283  22.1903  22.7747  22.8793  23.4397  24.7788  25.0412
    30.0990  30.2150

          k = 0.2931-0.2931 0.5936 (  1071 PWs)   bands (ev):

    -3.5801  -3.5571  -1.9559  -1.8661   2.5858   2.6394   3.3329   3.7531
     5.2471   5.5583   5.7745   7.8048   9.0094  11.3660  16.7330  18.4594
    19.5710  19.9952  21.3666  22.8509  23.0682  23.4890  23.7901  23.9760
    27.3442  27.4140

          k = 0.2931-0.2931-1.1873 (  1072 PWs)   bands (ev):

    -6.0538  -6.0247   1.5090   1.6330   3.0971   3.2386   4.1449   4.1808
     6.2304   6.3044   6.3120   6.7420  13.8936  14.2111  15.9425  16.5000
    16.5921  18.1170  20.1575  21.8160  21.8196  22.5479  24.2293  24.3001
    28.8502  30.2063

     highest occupied level (ev):    30.2846

!    total energy              =    -437.65725429 Ry
     Harris-Foulkes estimate   =    -437.65725429 Ry
     estimated scf accuracy    <          1.2E-13 Ry

     The total energy is the sum of the following terms:

     one-electron contribution =     -35.05868222 Ry
     hartree contribution      =      88.69994311 Ry
     xc contribution           =    -127.72688184 Ry
     ewald contribution        =    -363.57163334 Ry

     convergence has been achieved in  12 iterations

     Forces acting on atoms (cartesian axes, Ry/au):

     atom    1 type  1   force =     0.02887952    0.02887952    0.00000000
     atom    2 type  1   force =    -0.06425080   -0.06425080    0.00000000
     atom    3 type  2   force =    -1.83367603    1.78145854    0.00000000
     atom    4 type  2   force =     1.78145854   -1.83367603    0.00000000
     atom    5 type  2   force =    -1.76485569   -1.76485569    0.00000000
     atom    6 type  2   force =     1.85244446    1.85244446    0.00000000

     Total force =     5.116090     Total SCF correction =     0.000002


     Computing stress (Cartesian axis) and pressure

          total   stress  (Ry/bohr**3)                   (kbar)     P= 5974.63
   0.00028327   0.00002565   0.00000000         41.67      3.77      0.00
   0.00002565   0.00028327   0.00000000          3.77     41.67      0.00
   0.00000000   0.00000000   0.12127759          0.00      0.00  17840.55


     number of scf cycles    =   4
     number of bfgs steps    =   3

     enthalpy old            =    -441.2331312634 Ry
     enthalpy new            =    -437.6572542918 Ry

     CASE: enthalpy_new > enthalpy_old

     new trust radius        =       0.2635509340 bohr
     new conv_thr            =            1.0E-12 Ry

     new unit-cell volume =    224.61725 a.u.^3 (    33.28484 Ang^3 )
     density =     15.03727 g/cm^3

CELL_PARAMETERS (alat=  9.11000000)
   0.758412144   0.000000000   0.000000000
   0.000000000   0.758412144   0.000000000
   0.000000000   0.000000000   0.516508436

ATOMIC_POSITIONS (crystal)
Sn      -0.000017047  -0.000017047   0.000000000
Sn       0.499584246   0.499584246   0.500000000
O        0.802851479   0.195976586   0.500000000
O        0.195976586   0.802851479   0.500000000
O        0.303242824   0.303242824   0.000000000
O        0.696361912   0.696361912   0.000000000



     Writing output data file SnO2.save
     NEW-OLD atomic charge density approx. for the potential

     Check: negative/imaginary core charge=   -0.000503    0.000000
     extrapolated charge   50.38702, renormalised to   52.00000

     total cpu time spent up to now is       62.3 secs

     Self-consistent Calculation

     iteration #  1     ecut=    25.00 Ry     beta= 0.70
     Davidson diagonalization with overlap
     ethr =  1.00E-06,  avg # of iterations =  7.0

     total cpu time spent up to now is       64.7 secs

     total energy              =    -441.71489343 Ry
     Harris-Foulkes estimate   =    -442.97955752 Ry
     estimated scf accuracy    <       0.23596988 Ry

     iteration #  2     ecut=    25.00 Ry     beta= 0.70
     Davidson diagonalization with overlap
     ethr =  4.54E-04,  avg # of iterations =  2.0

     total cpu time spent up to now is       65.7 secs

     total energy              =    -441.82294152 Ry
     Harris-Foulkes estimate   =    -441.84514077 Ry
     estimated scf accuracy    <       0.04282666 Ry

     iteration #  3     ecut=    25.00 Ry     beta= 0.70
     Davidson diagonalization with overlap
     ethr =  8.24E-05,  avg # of iterations =  2.0

     total cpu time spent up to now is       66.6 secs

     total energy              =    -441.82795930 Ry
     Harris-Foulkes estimate   =    -441.82828444 Ry
     estimated scf accuracy    <       0.00175377 Ry

     iteration #  4     ecut=    25.00 Ry     beta= 0.70
     Davidson diagonalization with overlap
     ethr =  3.37E-06,  avg # of iterations =  2.0

     total cpu time spent up to now is       67.6 secs

     total energy              =    -441.82825611 Ry
     Harris-Foulkes estimate   =    -441.82825994 Ry
     estimated scf accuracy    <       0.00005538 Ry

     iteration #  5     ecut=    25.00 Ry     beta= 0.70
     Davidson diagonalization with overlap
     ethr =  1.07E-07,  avg # of iterations =  2.7

     total cpu time spent up to now is       68.6 secs

     total energy              =    -441.82826400 Ry
     Harris-Foulkes estimate   =    -441.82827404 Ry
     estimated scf accuracy    <       0.00001953 Ry

     iteration #  6     ecut=    25.00 Ry     beta= 0.70
     Davidson diagonalization with overlap
     ethr =  3.76E-08,  avg # of iterations =  2.1

     total cpu time spent up to now is       69.5 secs

     total energy              =    -441.82826817 Ry
     Harris-Foulkes estimate   =    -441.82826832 Ry
     estimated scf accuracy    <       0.00000042 Ry

     iteration #  7     ecut=    25.00 Ry     beta= 0.70
     Davidson diagonalization with overlap
     ethr =  8.04E-10,  avg # of iterations =  2.0

     total cpu time spent up to now is       70.5 secs

     total energy              =    -441.82826828 Ry
     Harris-Foulkes estimate   =    -441.82826830 Ry
     estimated scf accuracy    <       0.00000003 Ry

     iteration #  8     ecut=    25.00 Ry     beta= 0.70
     Davidson diagonalization with overlap
     ethr =  6.01E-11,  avg # of iterations =  2.0

     total cpu time spent up to now is       71.4 secs

     total energy              =    -441.82826829 Ry
     Harris-Foulkes estimate   =    -441.82826829 Ry
     estimated scf accuracy    <          1.8E-09 Ry

     iteration #  9     ecut=    25.00 Ry     beta= 0.70
     Davidson diagonalization with overlap
     ethr =  3.54E-12,  avg # of iterations =  2.2

     total cpu time spent up to now is       72.4 secs

     total energy              =    -441.82826829 Ry
     Harris-Foulkes estimate   =    -441.82826829 Ry
     estimated scf accuracy    <          5.5E-10 Ry

     iteration # 10     ecut=    25.00 Ry     beta= 0.70
     Davidson diagonalization with overlap
     ethr =  1.05E-12,  avg # of iterations =  2.0

     total cpu time spent up to now is       73.3 secs

     total energy              =    -441.82826829 Ry
     Harris-Foulkes estimate   =    -441.82826829 Ry
     estimated scf accuracy    <          2.0E-11 Ry

     iteration # 11     ecut=    25.00 Ry     beta= 0.70
     Davidson diagonalization with overlap
     ethr =  1.00E-13,  avg # of iterations =  2.0

     total cpu time spent up to now is       74.1 secs

     End of self-consistent calculation

          k = 0.0000 0.0000 0.0000 (  1065 PWs)   bands (ev):

    -0.5193   0.0150   3.7331   4.9062   5.4831   5.4833   5.8357   6.0407
     6.0412   7.7357   7.8141   7.9638   7.9638  13.9232  19.3386  19.3386
    19.6424  20.0890  20.9107  23.9788  25.1295  25.1297  26.3772  28.2504
    28.2506  29.1722

          k = 0.0000 0.0000 0.4840 (  1082 PWs)   bands (ev):

     0.8137   0.9349   2.5299   2.5299   4.4824   5.8838   6.3619   6.6784
     6.6784   7.5854   7.7441  10.4384  10.4385  12.9221  15.1814  20.8264
    20.8264  21.1315  21.2663  23.0277  23.7118  23.7120  24.7142  26.6775
    26.6775  27.2083

          k = 0.0000 0.0000-0.9680 (  1058 PWs)   bands (ev):

     1.3389   1.3394   2.1283   2.1288   6.2309   6.2309   6.6864   6.6865
     7.3151   7.3151   8.6957   8.6958  13.2463  13.2465  16.2631  16.2631
    19.7934  19.7935  22.2567  22.2567  24.4040  24.4041  24.7380  24.7385
    25.8876  25.8879

          k = 0.0000 0.3296 0.0000 (  1076 PWs)   bands (ev):

    -0.0659   0.2347   2.7486   3.7846   5.5213   5.5512   5.8373   6.3723
     6.6009   7.6176   7.6917   7.7394   8.8551  13.8788  17.3189  18.8663
    20.4065  21.0573  22.3904  23.5756  24.0642  25.6798  26.0576  27.7457
    27.9729  29.0793

          k = 0.0000 0.3296 0.4840 (  1071 PWs)   bands (ev):

     0.9742   1.0382   2.2404   2.5214   4.9027   5.9437   6.3056   6.4566
     6.8984   7.6642   7.7533   8.8122  11.1144  14.0823  15.9495  19.0480
    19.9173  20.5173  21.2968  23.8888  23.9424  24.2702  24.8785  25.2814
    27.1257  28.7930

          k = 0.0000 0.3296-0.9680 (  1062 PWs)   bands (ev):

     0.6624   0.6625   3.3190   3.3191   5.6811   5.6811   6.7868   6.7869
     7.4623   7.4623   8.3431   8.3431  13.1534  13.1536  16.9371  16.9371
    19.0482  19.0482  22.2617  22.2618  23.0275  23.0276  24.3857  24.3858
    28.3004  28.3005

          k = 0.0000-0.6593 0.0000 (  1078 PWs)   bands (ev):

     0.6317   0.6390   2.2444   2.2523   5.6026   5.6028   6.2300   6.2359
     7.0837   7.0892   7.5294   7.5344  11.6590  11.6605  17.7831  17.7851
    22.1420  22.1476  22.1573  22.1618  24.1818  24.2055  27.5346  27.5354
    27.9136  27.9155

          k = 0.0000-0.6593 0.4840 (  1064 PWs)   bands (ev):

     1.1393   1.1432   2.2463   2.2471   5.7494   5.7514   6.2575   6.2596
     7.3277   7.3309   7.6774   7.6787  13.0107  13.0202  17.9883  17.9978
    19.1367  19.1437  22.2587  22.2666  24.6270  24.6417  24.9168  24.9301
    28.7514  28.7561

          k = 0.0000-0.6593-0.9680 (  1096 PWs)   bands (ev):

     0.3083   0.3084   4.8696   4.8700   4.9695   4.9698   5.9955   5.9956
     7.4613   7.4613   8.1833   8.1833  13.2232  13.2235  17.0938  17.0938
    19.0101  19.0102  20.8223  20.8224  23.3944  23.3944  24.2381  24.2381
    29.6732  29.6733

          k = 0.3296 0.3296 0.0000 (  1056 PWs)   bands (ev):

    -0.1020   0.6337   2.1727   4.6581   5.2551   5.4775   5.6866   6.3753
     6.8131   7.6027   7.6276   7.8967   8.9741  12.8413  17.5771  19.6854
    20.8367  21.6708  21.8831  23.1442  25.1629  25.1751  25.5092  27.5212
    28.1427  28.6694

          k = 0.3296 0.3296 0.4840 (  1071 PWs)   bands (ev):

     0.9783   1.1875   2.1730   2.3845   5.2525   5.9562   6.3180   6.3542
     7.0623   7.6359   7.6587   9.2464  10.2058  13.5849  17.1139  17.7219
    20.2317  21.0368  21.4557  22.9009  23.8589  24.7695  24.9252  25.9099
    27.1103  28.9118

          k = 0.3296 0.3296-0.9680 (  1072 PWs)   bands (ev):

     0.3341   1.2042   2.1667   4.6782   5.3690   5.6117   6.0125   7.4370
     7.5573   7.9873   8.0640   8.4631  12.9885  13.0133  15.3003  17.7584
    18.5229  18.5628  20.9953  23.2400  23.3658  24.0260  24.8980  26.0733
    26.2794  29.2901

          k = 0.3296-0.6593 0.0000 (  1062 PWs)   bands (ev):

     0.2735   0.2769   3.1696   3.1741   5.5341   5.5345   5.9915   5.9953
     7.1785   7.1832   7.7530   7.7559  10.4773  10.4774  19.0930  19.0937
    21.9355  21.9392  22.0007  22.0063  24.8305  24.8453  27.0473  27.0481
    27.7590  27.7594

          k = 0.3296-0.6593 0.4840 (  1068 PWs)   bands (ev):

     1.1234   1.1260   2.2500   2.2504   5.7667   5.7685   6.3051   6.3067
     7.3615   7.3637   8.1583   8.1598  11.6165  11.6208  17.9680  17.9724
    20.5891  20.5953  21.4825  21.4871  24.5090  24.5228  25.9509  25.9579
    28.1327  28.1343

          k = 0.3296-0.6593-0.9680 (  1072 PWs)   bands (ev):

     0.5950   0.5951   3.2211   3.2212   5.7616   5.7616   7.3783   7.3784
     7.5419   7.5419   8.1452   8.1453  13.0264  13.0266  15.5471  15.5471
    18.1981  18.1981  23.2898  23.2899  23.8950  23.8952  24.6955  24.6956
    28.8174  28.8175

          k =-0.6593-0.6593 0.0000 (  1084 PWs)   bands (ev):

     0.0395   0.0397   4.6451   4.6452   5.0071   5.0073   5.3852   5.3853
     7.1478   7.1479   7.8012   7.8012   9.5530   9.5530  19.6867  19.6867
    21.7147  21.7148  23.0292  23.0294  25.2366  25.2367  25.5066  25.5068
    27.9324  27.9326

          k =-0.6593-0.6593 0.4840 (  1060 PWs)   bands (ev):

     1.1076   1.1078   2.2740   2.2742   5.8261   5.8262   6.4365   6.4365
     7.3494   7.3495   9.1824   9.1825   9.9866   9.9867  17.9818  17.9819
    20.7499  20.7499  22.1237  22.1238  24.8999  24.8999  26.6707  26.6709
    27.0164  27.0166

          k =-0.6593-0.6593-0.9680 (  1072 PWs)   bands (ev):

     1.0779   1.0783   2.2096   2.2100   5.9825   5.9826   7.5218   7.5218
     7.9712   7.9713   8.6811   8.6813  12.7466  12.7468  14.1004  14.1006
    17.8574  17.8574  24.5469  24.5472  24.8189  24.8194  26.2101  26.2103
    26.6916  26.6918

          k = 0.3296-0.3296 0.0000 (  1056 PWs)   bands (ev):

    -0.1022   0.6341   2.1724   4.6581   5.2553   5.4774   5.6868   6.3753
     6.8131   7.6027   7.6276   7.8966   8.9742  12.8413  17.5771  19.6855
    20.8367  21.6707  21.8831  23.1442  25.1617  25.1767  25.5089  27.5209
    28.1430  28.6695

          k = 0.3296-0.3296 0.4840 (  1071 PWs)   bands (ev):

     0.9782   1.1876   2.1729   2.3846   5.2525   5.9562   6.3181   6.3541
     7.0623   7.6358   7.6587   9.2464  10.2058  13.5850  17.1140  17.7218
    20.2316  21.0369  21.4557  22.9010  23.8591  24.7685  24.9259  25.9097
    27.1104  28.9119

          k = 0.3296-0.3296-0.9680 (  1072 PWs)   bands (ev):

     0.3343   1.2038   2.1672   4.6781   5.3688   5.6117   6.0127   7.4369
     7.5574   7.9873   8.0641   8.4630  12.9887  13.0131  15.3005  17.7584
    18.5228  18.5628  20.9951  23.2398  23.3659  24.0262  24.8979  26.0728
    26.2798  29.2902

     highest occupied level (ev):    29.6733

!    total energy              =    -441.82826829 Ry
     Harris-Foulkes estimate   =    -441.82826829 Ry
     estimated scf accuracy    <          3.3E-13 Ry

     The total energy is the sum of the following terms:

     one-electron contribution =      17.74852560 Ry
     hartree contribution      =      65.42775798 Ry
     xc contribution           =    -127.31570306 Ry
     ewald contribution        =    -397.68884880 Ry

     convergence has been achieved in  11 iterations

     Forces acting on atoms (cartesian axes, Ry/au):

     atom    1 type  1   force =    -0.00350013   -0.00350013    0.00000000
     atom    2 type  1   force =     0.00610881    0.00610881    0.00000000
     atom    3 type  2   force =    -0.08025423    0.07748657    0.00000000
     atom    4 type  2   force =     0.07748657   -0.08025423    0.00000000
     atom    5 type  2   force =    -0.07890718   -0.07890718    0.00000000
     atom    6 type  2   force =     0.07906615    0.07906615    0.00000000

     Total force =     0.223483     Total SCF correction =     0.000002


     Computing stress (Cartesian axis) and pressure

          total   stress  (Ry/bohr**3)                   (kbar)     P= 5191.30
   0.03199338  -0.00000037   0.00000000       4706.39     -0.05      0.00
  -0.00000037   0.03199338   0.00000000         -0.05   4706.39      0.00
   0.00000000  -0.00000000   0.04188242          0.00     -0.00   6161.11


     number of scf cycles    =   5
     number of bfgs steps    =   3

     enthalpy old            =    -441.2331312634 Ry
     enthalpy new            =    -441.8282682859 Ry

     CASE: enthalpy_new < enthalpy_old

     new trust radius        =       0.4808352517 bohr
     new conv_thr            =            1.0E-12 Ry

     new unit-cell volume =    307.39702 a.u.^3 (    45.55154 Ang^3 )
     density =     10.98784 g/cm^3

CELL_PARAMETERS (alat=  9.11000000)
   0.823620036   0.000000000   0.000000000
   0.000000000   0.823620036   0.000000000
   0.000000000   0.000000000   0.599364095

ATOMIC_POSITIONS (crystal)
Sn       0.000309215   0.000309215   0.000000000
Sn       0.500325181   0.500325181   0.500000000
O        0.805023156   0.193699640   0.500000000
O        0.193699640   0.805023156   0.500000000
O        0.304979793   0.304979793   0.000000000
O        0.693663015   0.693663015   0.000000000



     Writing output data file SnO2.save
     NEW-OLD atomic charge density approx. for the potential

     Check: negative/imaginary core charge=   -0.001110    0.000000
     Check: negative starting charge=   -0.000688

     negative rho (up, down):  9.375E-04 0.000E+00
     extrapolated charge   66.00239, renormalised to   52.00000

     total cpu time spent up to now is       75.4 secs

     Self-consistent Calculation

     iteration #  1     ecut=    25.00 Ry     beta= 0.70
     Davidson diagonalization with overlap
     ethr =  1.00E-06,  avg # of iterations = 11.2

     negative rho (up, down):  2.004E-04 0.000E+00

     total cpu time spent up to now is       77.8 secs

     total energy              =    -430.38228802 Ry
     Harris-Foulkes estimate   =    -426.67538408 Ry
     estimated scf accuracy    <       6.21883177 Ry

     iteration #  2     ecut=    25.00 Ry     beta= 0.70
     Davidson diagonalization with overlap
     ethr =  1.00E-02,  avg # of iterations =  4.4

     negative rho (up, down):  9.673E-05 0.000E+00

     total cpu time spent up to now is       79.3 secs

     total energy              =    -441.90491312 Ry
     Harris-Foulkes estimate   =    -445.39101956 Ry
     estimated scf accuracy    <       8.02924427 Ry

     iteration #  3     ecut=    25.00 Ry     beta= 0.70
     Davidson diagonalization with overlap
     ethr =  1.00E-02,  avg # of iterations =  2.0

     negative rho (up, down):  4.015E-05 0.000E+00

     total cpu time spent up to now is       80.1 secs

     total energy              =    -441.69132436 Ry
     Harris-Foulkes estimate   =    -442.30708123 Ry
     estimated scf accuracy    <       1.85270868 Ry

     iteration #  4     ecut=    25.00 Ry     beta= 0.70
     Davidson diagonalization with overlap
     ethr =  3.56E-03,  avg # of iterations =  1.0

     total cpu time spent up to now is       80.7 secs

     total energy              =    -441.43817602 Ry
     Harris-Foulkes estimate   =    -441.74622147 Ry
     estimated scf accuracy    <       0.74432816 Ry

     iteration #  5     ecut=    25.00 Ry     beta= 0.70
     Davidson diagonalization with overlap
     ethr =  1.43E-03,  avg # of iterations =  1.6

     total cpu time spent up to now is       81.5 secs

     total energy              =    -441.36968769 Ry
     Harris-Foulkes estimate   =    -441.47707216 Ry
     estimated scf accuracy    <       0.17121504 Ry

     iteration #  6     ecut=    25.00 Ry     beta= 0.70
     Davidson diagonalization with overlap
     ethr =  3.29E-04,  avg # of iterations =  2.0

     total cpu time spent up to now is       82.5 secs

     total energy              =    -441.40505454 Ry
     Harris-Foulkes estimate   =    -441.40543995 Ry
     estimated scf accuracy    <       0.00066301 Ry

     iteration #  7     ecut=    25.00 Ry     beta= 0.70
     Davidson diagonalization with overlap
     ethr =  1.28E-06,  avg # of iterations =  2.7

     total cpu time spent up to now is       83.5 secs

     total energy              =    -441.40536175 Ry
     Harris-Foulkes estimate   =    -441.40540170 Ry
     estimated scf accuracy    <       0.00017727 Ry

     iteration #  8     ecut=    25.00 Ry     beta= 0.70
     Davidson diagonalization with overlap
     ethr =  3.41E-07,  avg # of iterations =  1.6

     total cpu time spent up to now is       84.2 secs

     total energy              =    -441.40532534 Ry
     Harris-Foulkes estimate   =    -441.40537079 Ry
     estimated scf accuracy    <       0.00008953 Ry

     iteration #  9     ecut=    25.00 Ry     beta= 0.70
     Davidson diagonalization with overlap
     ethr =  1.72E-07,  avg # of iterations =  2.0

     total cpu time spent up to now is       85.1 secs

     total energy              =    -441.40533109 Ry
     Harris-Foulkes estimate   =    -441.40533408 Ry
     estimated scf accuracy    <       0.00000599 Ry

     iteration # 10     ecut=    25.00 Ry     beta= 0.70
     Davidson diagonalization with overlap
     ethr =  1.15E-08,  avg # of iterations =  2.1

     total cpu time spent up to now is       86.0 secs

     total energy              =    -441.40533221 Ry
     Harris-Foulkes estimate   =    -441.40533232 Ry
     estimated scf accuracy    <       0.00000024 Ry

     iteration # 11     ecut=    25.00 Ry     beta= 0.70
     Davidson diagonalization with overlap
     ethr =  4.53E-10,  avg # of iterations =  2.0

[...]
     4.3414   4.5756   4.7843   6.1110   9.1169  10.2510  14.6415  15.0480
    16.3717  17.2709  19.2178  19.5608  20.3833  21.5365  22.7712  23.2362
    24.4098  24.9532

          k = 0.0000-0.6406 0.0000 (  1078 PWs)   bands (ev):

    -1.5051  -0.6620   1.0182   1.6787   2.9817   3.2217   3.6388   3.7379
     3.8932   3.9572   4.5360   4.8205   8.7388   9.3102  14.7499  15.7755
    18.8599  18.9196  20.2571  20.7254  20.9318  21.8502  23.7581  24.6340
    24.8036  25.3496

          k = 0.0000-0.6406 0.4598 (  1064 PWs)   bands (ev):

    -1.2268  -0.2006   1.2653   1.6163   2.6654   3.3833   3.6619   3.7922
     4.3800   4.4771   4.6240   5.2855   9.0446  10.3228  14.9417  15.5536
    16.7512  17.0790  18.9273  19.8669  21.4033  22.6027  23.8348  24.5288
    24.7615  25.0197

          k = 0.0000-0.6406-0.9195 (  1096 PWs)   bands (ev):

    -1.7160   0.8136   1.1732   1.7932   2.9922   3.3552   3.6372   3.8047
     4.1588   4.5405   4.7897   6.0881   8.2314  10.6502  14.6301  14.8955
    15.8237  16.8296  18.2464  18.8618  20.6111  21.3360  23.1904  23.9067
    25.2749  26.0571

          k = 0.3203 0.3203 0.0000 (  1056 PWs)   bands (ev):

    -1.6064  -0.5546   0.9008   1.7360   3.1008   3.3364   3.6894   3.8177
     3.9348   3.9468   5.0091   6.3215   6.7115   9.5432  15.1739  17.1810
    17.1983  18.5973  19.3764  21.5241  22.2156  23.0313  23.2205  23.5680
    25.0171  25.5358

          k = 0.3203 0.3203 0.4598 (  1071 PWs)   bands (ev):

    -1.2923  -0.1426   1.2974   1.5476   2.6433   3.3909   3.4903   3.8357
     3.9989   4.3836   4.4638   6.7869   7.9346  10.1788  14.4290  15.5454
    17.4144  17.6222  19.2067  19.7553  20.7947  21.9588  24.0099  24.2704
    25.1894  25.2938

          k = 0.3203 0.3203-0.9195 (  1072 PWs)   bands (ev):

    -1.6720   1.0009   1.2794   1.7878   3.1119   3.3247   3.3290   4.0822
     4.1664   4.5046   4.8765   6.3617   9.0599  10.7578  13.1606  14.7160
    16.1497  16.2638  18.6998  20.3627  21.4346  21.7909  23.1632  24.1124
    24.3693  24.9859

          k = 0.3203-0.6406 0.0000 (  1062 PWs)   bands (ev):

    -1.8042  -0.2210   1.3701   1.9901   2.8680   3.2620   3.7071   3.7892
     3.8806   3.9746   4.9533   5.0085   7.5179   8.2368  15.4587  16.7239
    18.9195  19.0217  20.4196  21.0091  21.8122  22.1298  23.3738  23.4724
    24.9457  25.3526

          k = 0.3203-0.6406 0.4598 (  1068 PWs)   bands (ev):

    -1.2117  -0.1963   1.3439   1.5609   2.7023   3.4728   3.6881   3.8392
     4.1757   4.3928   4.8897   5.8915   8.3952   8.8889  14.4279  15.4948
    17.4924  18.0425  19.0784  19.7146  21.4017  22.8459  23.6552  24.4352
    24.8792  25.4217

          k = 0.3203-0.6406-0.9195 (  1072 PWs)   bands (ev):

    -1.4235   0.7188   0.9376   1.2230   3.3611   3.6332   3.8574   4.1451
     4.4979   4.7143   4.8496   6.8240   8.2555  10.1287  13.0789  13.8264
    15.3716  16.1018  19.9518  20.2166  21.7489  21.7634  23.7623  23.9690
    25.3643  25.4256

          k =-0.6406-0.6406 0.0000 (  1084 PWs)   bands (ev):

    -1.9858   0.0162   1.9954   2.2718   2.6746   3.0488   3.5649   3.5897
     3.7809   3.9405   4.8408   5.4618   6.3579   7.1425  15.3538  18.4796
    18.7969  18.9689  21.0887  21.2143  21.8478  22.4916  22.6940  23.1828
    24.2247  25.1995

          k =-0.6406-0.6406 0.4598 (  1060 PWs)   bands (ev):

    -1.1927  -0.1574   1.2662   1.7337   2.8112   3.4974   3.8247   3.9637
     3.9841   4.4193   5.7136   6.7833   7.1458   7.6452  14.6435  14.8601
    17.4689  18.7084  19.2669  21.3916  21.4702  22.3994  23.2933  23.8640
    25.5282  25.6104

          k =-0.6406-0.6406-0.9195 (  1072 PWs)   bands (ev):

    -0.8294  -0.3169   1.0400   1.2458   3.4944   3.5065   3.8988   4.1467
     4.4020   4.7706   5.8041   7.2836   8.4446   9.2456  11.8709  13.4275
    14.5481  15.4201  21.8741  22.0109  22.0817  22.5223  22.8686  23.3590
    25.2680  25.6313

          k = 0.3203-0.3203 0.0000 (  1056 PWs)   bands (ev):

    -2.2805   0.4322   1.2902   2.0153   2.8342   3.2885   3.6761   3.9941
     4.0039   4.0911   4.4488   4.9868   6.8570   9.9993  15.1182  16.5908
    17.9610  19.3360  19.7722  21.7211  21.9967  22.2882  23.3706  23.8807
    25.1347  25.1983

          k = 0.3203-0.3203 0.4598 (  1071 PWs)   bands (ev):

    -1.4129   0.0689   1.2299   1.3671   2.6462   3.3902   3.6614   3.7401
     4.2130   4.4429   4.8605   6.4450   7.8313   9.4760  14.3782  15.6357
    17.9954  18.2572  18.8446  19.9551  21.1776  22.7387  23.5743  23.7752
    24.4517  25.3704

          k = 0.3203-0.3203-0.9195 (  1072 PWs)   bands (ev):

    -0.7245  -0.3868   0.9455   1.2594   3.4831   3.6461   3.7994   3.9710
     4.6038   4.6323   5.4482   6.4433   8.5394   9.5050  13.8602  14.2130
    16.2937  17.3176  18.5764  19.6973  22.0969  22.1648  23.0694  23.2029
    24.6172  25.2831

     highest occupied level (ev):    26.0571

!    total energy              =    -442.67008967 Ry
     Harris-Foulkes estimate   =    -442.67008967 Ry
     estimated scf accuracy    <          5.5E-14 Ry

     The total energy is the sum of the following terms:

     one-electron contribution =      12.84966204 Ry
     hartree contribution      =      61.94097229 Ry
     xc contribution           =    -125.33877752 Ry
     ewald contribution        =    -392.12194648 Ry

     convergence has been achieved in   7 iterations

     Forces acting on atoms (cartesian axes, Ry/au):

     atom    1 type  1   force =     0.00004565    0.00004565    0.00000000
     atom    2 type  1   force =    -0.00000650   -0.00000650    0.00000000
     atom    3 type  2   force =    -0.00004221    0.00004186    0.00000000
     atom    4 type  2   force =     0.00004186   -0.00004221    0.00000000
     atom    5 type  2   force =     0.00000714    0.00000714    0.00000000
     atom    6 type  2   force =    -0.00004594   -0.00004594    0.00000000

     Total force =     0.000125     Total SCF correction =     0.000001


     Computing stress (Cartesian axis) and pressure

          total   stress  (Ry/bohr**3)                   (kbar)     P=    0.02
  -0.00000036   0.00716892   0.00000000         -0.05   1054.59      0.00
   0.00716892  -0.00000036   0.00000000       1054.59     -0.05      0.00
   0.00000000   0.00000000   0.00000103          0.00      0.00      0.15


     number of scf cycles    =  47
     number of bfgs steps    =  38

     enthalpy old            =    -442.6700895875 Ry
     enthalpy new            =    -442.6700896726 Ry

     CASE: enthalpy_new < enthalpy_old

     small trust_radius: resetting bfgs history

     new trust radius        =       0.0000815933 bohr
     new conv_thr            =            1.0E-12 Ry

     new unit-cell volume =    250.41951 a.u.^3 (    37.10834 Ang^3 )
     density =     13.48788 g/cm^3

CELL_PARAMETERS (alat=  9.11000000)
   0.780451326   0.000000000   0.000000000
   0.000000000   0.780451326   0.000000000
   0.000000000   0.000000000   0.543777689

ATOMIC_POSITIONS (crystal)
Sn       0.046609103   0.046609103   0.000000000
Sn       0.555544914   0.555544914   0.500000000
O        0.703374682   0.115605825   0.500000000
O        0.115605825   0.703374682   0.500000000
O        0.344271618   0.344271618   0.000000000
O        0.732593858   0.732593858   0.000000000



     Writing output data file SnO2.save
     NEW-OLD atomic charge density approx. for the potential

     Check: negative/imaginary core charge=   -0.000687    0.000000
     extrapolated charge   52.00040, renormalised to   52.00000

     total cpu time spent up to now is      554.4 secs

     Self-consistent Calculation

     iteration #  1     ecut=    25.00 Ry     beta= 0.70
     Davidson diagonalization with overlap
     ethr =  1.00E-06,  avg # of iterations =  1.0

     Threshold (ethr) on eigenvalues was too large:
     Diagonalizing with lowered threshold

     Davidson diagonalization with overlap
     ethr =  8.84E-11,  avg # of iterations =  3.0

     total cpu time spent up to now is      556.4 secs

     total energy              =    -442.67008962 Ry
     Harris-Foulkes estimate   =    -442.66984932 Ry
     estimated scf accuracy    <       0.00000001 Ry

     iteration #  2     ecut=    25.00 Ry     beta= 0.70
     Davidson diagonalization with overlap
     ethr =  2.56E-11,  avg # of iterations =  3.0

     total cpu time spent up to now is      557.5 secs

     total energy              =    -442.67008963 Ry
     Harris-Foulkes estimate   =    -442.67008964 Ry
     estimated scf accuracy    <          9.4E-09 Ry

     iteration #  3     ecut=    25.00 Ry     beta= 0.70
     Davidson diagonalization with overlap
     ethr =  1.81E-11,  avg # of iterations =  2.0

     total cpu time spent up to now is      558.4 secs

     total energy              =    -442.67008963 Ry
     Harris-Foulkes estimate   =    -442.67008963 Ry
     estimated scf accuracy    <          5.4E-10 Ry

     iteration #  4     ecut=    25.00 Ry     beta= 0.70
     Davidson diagonalization with overlap
     ethr =  1.04E-12,  avg # of iterations =  2.0

     total cpu time spent up to now is      559.4 secs

     total energy              =    -442.67008963 Ry
     Harris-Foulkes estimate   =    -442.67008963 Ry
     estimated scf accuracy    <          9.8E-11 Ry

     iteration #  5     ecut=    25.00 Ry     beta= 0.70
     Davidson diagonalization with overlap
     ethr =  1.89E-13,  avg # of iterations =  2.3

     total cpu time spent up to now is      560.4 secs

     total energy              =    -442.67008963 Ry
     Harris-Foulkes estimate   =    -442.67008963 Ry
     estimated scf accuracy    <          6.4E-12 Ry

     iteration #  6     ecut=    25.00 Ry     beta= 0.70
     Davidson diagonalization with overlap
     ethr =  1.00E-13,  avg # of iterations =  1.6

     total cpu time spent up to now is      561.1 secs

     End of self-consistent calculation

          k = 0.0000 0.0000 0.0000 (  1065 PWs)   bands (ev):

    -2.5996   0.5612   1.3027   1.3661   2.8191   3.2098   3.7654   3.9436
     3.9982   4.2127   4.6276   5.1274   7.8474  11.2930  14.9507  15.7697
    17.1694  17.9663  18.8427  21.5432  23.1545  23.3640  23.8200  24.0944
    25.0046  25.1260

          k = 0.0000 0.0000 0.4597 (  1082 PWs)   bands (ev):

    -1.6726   0.4024   0.9316   1.4140   2.4696   3.2979   3.3079   3.7532
     3.9860   4.4249   4.4328   7.1578   8.9328   9.7494  13.6291  16.8724
    17.6649  19.0498  19.2555  19.7694  20.4883  20.9780  22.9352  24.0024
    24.6751  24.9279

          k = 0.0000 0.0000-0.9195 (  1058 PWs)   bands (ev):

    -0.6668  -0.3378   1.1600   1.3347   3.3735   3.4174   3.9101   4.0820
     4.1098   4.2644   5.3965   6.1141   9.7782   9.8339  14.6907  15.2714
    17.3741  17.4011  18.9070  21.0499  21.2272  21.5979  22.3966  22.7911
    22.8837  23.0307

          k = 0.0000 0.3203 0.0000 (  1076 PWs)   bands (ev):

    -2.2254   0.3487   0.7795   1.5390   2.8917   3.2645   3.6973   3.8774
     3.9128   3.9814   4.8838   4.9278   7.5603  10.7753  14.6539  16.2919
    17.7685  17.7843  19.4833  21.5179  22.1625  22.8382  23.6857  24.4096
    24.7527  25.2659

          k = 0.0000 0.3203 0.4597 (  1071 PWs)   bands (ev):

    -1.4849   0.1366   1.0995   1.4570   2.5805   3.2564   3.5562   3.7880
     4.1521   4.3717   4.5770   6.3881   8.7124  10.1803  14.2099  16.2731
    17.5337  17.9367  18.1895  20.3202  21.1361  22.0114  23.1188  24.2456
    24.5983  25.2394

          k = 0.0000 0.3203-0.9195 (  1062 PWs)   bands (ev):

    -1.3775   0.7802   0.9932   1.2909   3.3515   3.5176   3.7312   4.1244
     4.3413   4.5755   4.7840   6.1108   9.1165  10.2509  14.6415  15.0479
    16.3717  17.2709  19.2175  19.5608  20.3831  21.5363  22.7710  23.2358
    24.4095  24.9529

          k = 0.0000-0.6407 0.0000 (  1078 PWs)   bands (ev):

    -1.5050  -0.6624   1.0182   1.6785   2.9816   3.2215   3.6385   3.7380
     3.8930   3.9567   4.5358   4.8204   8.7388   9.3102  14.7499  15.7755
    18.8595  18.9195  20.2569  20.7251  20.9316  21.8499  23.7577  24.6337
    24.8033  25.3493

          k = 0.0000-0.6407 0.4597 (  1064 PWs)   bands (ev):

    -1.2268  -0.2008   1.2652   1.6163   2.6654   3.3830   3.6616   3.7921
     4.3799   4.4770   4.6236   5.2854   9.0444  10.3225  14.9417  15.5535
    16.7510  17.0788  18.9271  19.8667  21.4031  22.6024  23.8345  24.5285
    24.7612  25.0195

          k = 0.0000-0.6407-0.9195 (  1096 PWs)   bands (ev):

    -1.7160   0.8135   1.1732   1.7927   2.9922   3.3550   3.6368   3.8045
     4.1586   4.5403   4.7896   6.0879   8.2309  10.6501  14.6300  14.8954
    15.8236  16.8295  18.2461  18.8617  20.6107  21.3357  23.1902  23.9064
    25.2747  26.0569

          k = 0.3203 0.3203 0.0000 (  1056 PWs)   bands (ev):

    -1.6063  -0.5550   0.9008   1.7358   3.1008   3.3363   3.6895   3.8175
     3.9347   3.9464   5.0090   6.3214   6.7114   9.5431  15.1738  17.1810
    17.1982  18.5968  19.3763  21.5238  22.2155  23.0309  23.2201  23.5677
    25.0168  25.5356

          k = 0.3203 0.3203 0.4597 (  1071 PWs)   bands (ev):

    -1.2923  -0.1428   1.2973   1.5474   2.6433   3.3906   3.4900   3.8355
     3.9985   4.3835   4.4638   6.7868   7.9343  10.1785  14.4289  15.5452
    17.4143  17.6220  19.2067  19.7550  20.7946  21.9587  24.0096  24.2702
    25.1892  25.2934

          k = 0.3203 0.3203-0.9195 (  1072 PWs)   bands (ev):

    -1.6720   1.0010   1.2794   1.7872   3.1120   3.3243   3.3287   4.0819
     4.1664   4.5044   4.8764   6.3615   9.0595  10.7577  13.1603  14.7159
    16.1496  16.2638  18.6996  20.3625  21.4346  21.7908  23.1628  24.1122
    24.3692  24.9856

          k = 0.3203-0.6407 0.0000 (  1062 PWs)   bands (ev):

    -1.8042  -0.2212   1.3702   1.9899   2.8680   3.2619   3.7070   3.7889
     3.8804   3.9744   4.9532   5.0082   7.5177   8.2367  15.4585  16.7240
    18.9191  19.0217  20.4195  21.0087  21.8120  22.1295  23.3735  23.4720
    24.9454  25.3523

          k = 0.3203-0.6407 0.4597 (  1068 PWs)   bands (ev):

    -1.2118  -0.1964   1.3439   1.5609   2.7022   3.4725   3.6878   3.8390
     4.1755   4.3927   4.8895   5.8913   8.3950   8.8886  14.4277  15.4945
    17.4924  18.0422  19.0782  19.7145  21.4016  22.8457  23.6549  24.4350
    24.8789  25.4214

          k = 0.3203-0.6407-0.9195 (  1072 PWs)   bands (ev):

    -1.4235   0.7184   0.9375   1.2231   3.3609   3.6329   3.8572   4.1448
     4.4977   4.7142   4.8495   6.8239   8.2549  10.1285  13.0787  13.8263
    15.3715  16.1017  19.9516  20.2166  21.7487  21.7633  23.7620  23.9687
    25.3641  25.4254

          k =-0.6407-0.6407 0.0000 (  1084 PWs)   bands (ev):

    -1.9858   0.0160   1.9955   2.2716   2.6745   3.0490   3.5645   3.5895
     3.7807   3.9403   4.8407   5.4616   6.3576   7.1425  15.3536  18.4795
    18.7971  18.9686  21.0888  21.2140  21.8475  22.4912  22.6938  23.1824
    24.2244  25.1992

          k =-0.6407-0.6407 0.4597 (  1060 PWs)   bands (ev):

    -1.1928  -0.1575   1.2662   1.7336   2.8112   3.4971   3.8245   3.9636
     3.9838   4.4192   5.7135   6.7831   7.1455   7.6452  14.6433  14.8597
    17.4686  18.7082  19.2669  21.3917  21.4701  22.3993  23.2930  23.8637
    25.5279  25.6102

          k =-0.6407-0.6407-0.9195 (  1072 PWs)   bands (ev):

    -0.8292  -0.3174   1.0400   1.2458   3.4940   3.5062   3.8987   4.1464
     4.4017   4.7705   5.8038   7.2835   8.4441   9.2456  11.8705  13.4274
    14.5480  15.4199  21.8741  22.0108  22.0815  22.5222  22.8683  23.3587
    25.2679  25.6312

          k = 0.3203-0.3203 0.0000 (  1056 PWs)   bands (ev):

    -2.2805   0.4320   1.2901   2.0152   2.8341   3.2884   3.6761   3.9940
     4.0036   4.0910   4.4484   4.9867   6.8568   9.9993  15.1180  16.5909
    17.9606  19.3360  19.7720  21.7210  21.9964  22.2879  23.3702  23.8804
    25.1343  25.1980

          k = 0.3203-0.3203 0.4597 (  1071 PWs)   bands (ev):

    -1.4130   0.0688   1.2299   1.3670   2.6460   3.3899   3.6611   3.7400
     4.2128   4.4427   4.8602   6.4450   7.8311   9.4758  14.3780  15.6354
    17.9952  18.2570  18.8445  19.9551  21.1776  22.7385  23.5741  23.7747
    24.4514  25.3701

          k = 0.3203-0.3203-0.9195 (  1072 PWs)   bands (ev):

    -0.7242  -0.3873   0.9454   1.2595   3.4828   3.6459   3.7990   3.9708
     4.6036   4.6321   5.4479   6.4431   8.5390   9.5050  13.8600  14.2129
    16.2935  17.3177  18.5763  19.6970  22.0967  22.1647  23.0690  23.2027
    24.6169  25.2829

     highest occupied level (ev):    26.0569

!    total energy              =    -442.67008963 Ry
     Harris-Foulkes estimate   =    -442.67008963 Ry
     estimated scf accuracy    <          7.1E-13 Ry

     The total energy is the sum of the following terms:

     one-electron contribution =      12.85100093 Ry
     hartree contribution      =      61.93986851 Ry
     xc contribution           =    -125.33863015 Ry
     ewald contribution        =    -392.12232892 Ry

     convergence has been achieved in   6 iterations

     Forces acting on atoms (cartesian axes, Ry/au):

     atom    1 type  1   force =    -0.00027867   -0.00027867    0.00000000
     atom    2 type  1   force =     0.00008218    0.00008218    0.00000000
     atom    3 type  2   force =     0.00007811   -0.00012843    0.00000000
     atom    4 type  2   force =    -0.00012843    0.00007811    0.00000000
     atom    5 type  2   force =     0.00015141    0.00015141    0.00000000
     atom    6 type  2   force =     0.00009540    0.00009540    0.00000000

     Total force =     0.000527     Total SCF correction =     0.000002


     Computing stress (Cartesian axis) and pressure

          total   stress  (Ry/bohr**3)                   (kbar)     P=   -0.33
   0.00000065   0.00716841   0.00000000          0.10   1054.51      0.00
   0.00716841   0.00000065   0.00000000       1054.51      0.10      0.00
   0.00000000   0.00000000  -0.00000807          0.00      0.00     -1.19


     number of scf cycles    =  48
     number of bfgs steps    =  39

     enthalpy old            =    -442.6700896726 Ry
     enthalpy new            =    -442.6700896321 Ry

     CASE: enthalpy_new > enthalpy_old

     new trust radius        =       0.0000151447 bohr

     trust_radius < trust_radius_min

     resetting bfgs history

     Message from routine bfgs:
     history already reset at previous step: stopping
     new conv_thr            =            1.0E-12 Ry

     new unit-cell volume =    250.41951 a.u.^3 (    37.10834 Ang^3 )
     density =     13.48788 g/cm^3

CELL_PARAMETERS (alat=  9.11000000)
   0.780451326   0.000000000   0.000000000
   0.000000000   0.780451326   0.000000000
   0.000000000   0.000000000   0.543777690

ATOMIC_POSITIONS (crystal)
Sn       0.046609103   0.046609103   0.000000000
Sn       0.555544914   0.555544914   0.500000000
O        0.703374682   0.115605825   0.500000000
O        0.115605825   0.703374682   0.500000000
O        0.344271618   0.344271618   0.000000000
O        0.732593858   0.732593858   0.000000000



     Writing output data file SnO2.save
     NEW-OLD atomic charge density approx. for the potential

     Check: negative/imaginary core charge=   -0.000687    0.000000

     total cpu time spent up to now is      562.4 secs

     Self-consistent Calculation

     iteration #  1     ecut=    25.00 Ry     beta= 0.70
     Davidson diagonalization with overlap
     ethr =  1.00E-06,  avg # of iterations =  1.0

     Threshold (ethr) on eigenvalues was too large:
     Diagonalizing with lowered threshold

     Davidson diagonalization with overlap

 %%%%%%%%%%%%%%%%%%%%%%%%%%%%%%%%%%%%%%%%%%%%%%%%%%%%%%%%%%%%%%%%%%%%%%%%%%%%%%
     Error in routine c_bands (1):
     too many bands are not converged
 %%%%%%%%%%%%%%%%%%%%%%%%%%%%%%%%%%%%%%%%%%%%%%%%%%%%%%%%%%%%%%%%%%%%%%%%%%%%%%

     stopping ...

 %%%%%%%%%%%%%%%%%%%%%%%%%%%%%%%%%%%%%%%%%%%%%%%%%%%%%%%%%%%%%%%%%%%%%%%%%%%%%%
     Error in routine c_bands (1):
     too many bands are not converged
 %%%%%%%%%%%%%%%%%%%%%%%%%%%%%%%%%%%%%%%%%%%%%%%%%%%%%%%%%%%%%%%%%%%%%%%%%%%%%%

     stopping ...
