
     Program PWSCF v.6.2.2 starts on  8Apr2018 at  0:18:20 

     This program is part of the open-source Quantum ESPRESSO suite
     for quantum simulation of materials; please cite
         "P. Giannozzi et al., J. Phys.:Condens. Matter 21 395502 (2009);
         "P. Giannozzi et al., J. Phys.:Condens. Matter 29 465901 (2017);
          URL http://www.quantum-espresso.org", 
     in publications or presentations arising from this work. More details at
     http://www.quantum-espresso.org/quote

     Parallel version (MPI), running on     2 processors

     MPI processes distributed on     1 nodes
     R & G space division:  proc/nbgrp/npool/nimage =       2
     Reading input from Conv_acell-kp.in
Warning: card &IONS ignored
Warning: card / ignored
Warning: card &CELL ignored
Warning: card / ignored

     Current dimensions of program PWSCF are:
     Max number of different atomic species (ntypx) = 10
     Max number of k-points (npk) =  40000
     Max angular momentum in pseudopotentials (lmaxx) =  3

     Subspace diagonalization in iterative solution of the eigenvalue problem:
     a serial algorithm will be used

 
     Parallelization info
     --------------------
     sticks:   dense  smooth     PW     G-vecs:    dense   smooth      PW
     Min         200     200     68                 2007     2007     408
     Max         201     201     69                 2008     2008     409
     Sum         401     401    137                 4015     4015     817
 


     bravais-lattice index     =            6
     lattice parameter (alat)  =       9.1100  a.u.
     unit-cell volume          =     506.5589 (a.u.)^3
     number of atoms/cell      =            6
     number of atomic types    =            2
     number of electrons       =        52.00
     number of Kohn-Sham states=           26
     kinetic-energy cutoff     =      15.0000  Ry
     charge density cutoff     =      60.0000  Ry
     convergence threshold     =      1.0E-12
     mixing beta               =       0.7000
     number of iterations used =            8  plain     mixing
     Exchange-correlation      = PBE ( 1  4  3  4 0 0)

     celldm(1)=   9.110000  celldm(2)=   0.000000  celldm(3)=   0.670000
     celldm(4)=   0.000000  celldm(5)=   0.000000  celldm(6)=   0.000000

     crystal axes: (cart. coord. in units of alat)
               a(1) = (   1.000000   0.000000   0.000000 )  
               a(2) = (   0.000000   1.000000   0.000000 )  
               a(3) = (   0.000000   0.000000   0.670000 )  

     reciprocal axes: (cart. coord. in units 2 pi/alat)
               b(1) = (  1.000000  0.000000  0.000000 )  
               b(2) = (  0.000000  1.000000  0.000000 )  
               b(3) = (  0.000000  0.000000  1.492537 )  


     PseudoPot. # 1 for Sn read from file:
     ../../Pseudo_potentials/Sn_PBE.upf
     MD5 check sum: 78e6386ae56e929f0568ae8bf606a80c
     Pseudo is Norm-conserving + core correction, Zval = 14.0
     Generated using ONCVPSP code by D. R. Hamann
     Using radial grid of 1628 points,  6 beta functions with: 
                l(1) =   0
                l(2) =   0
                l(3) =   1
                l(4) =   1
                l(5) =   2
                l(6) =   2

     PseudoPot. # 2 for O  read from file:
     ../../Pseudo_potentials/O_PBE.upf
     MD5 check sum: 3e3f909f7470e8921608ab6b1f57bbae
     Pseudo is Norm-conserving + core correction, Zval =  6.0
     Generated using ONCVPSP code by D. R. Hamann
     Using radial grid of  936 points,  5 beta functions with: 
                l(1) =   0
                l(2) =   0
                l(3) =   1
                l(4) =   1
                l(5) =   2

     atomic species   valence    mass     pseudopotential
        Sn            14.00   118.71000     Sn( 1.00)
        O              6.00    15.99900     O ( 1.00)

      4 Sym. Ops. (no inversion) found



   Cartesian axes

     site n.     atom                  positions (alat units)
         1           Sn  tau(   1) = (   0.0000000   0.0000000   0.0000000  )
         2           Sn  tau(   2) = (   0.5000000   0.5000000   0.3350000  )
         3           O   tau(   3) = (   0.8060000   0.1930000   0.3350000  )
         4           O   tau(   4) = (   0.1930000   0.8060000   0.3350000  )
         5           O   tau(   5) = (   0.3060000   0.3060000   0.0000000  )
         6           O   tau(   6) = (   0.6930000   0.6930000   0.0000000  )

     number of k points=  1221

     Number of k-points >= 100: set verbosity='high' to print them.

     Dense  grid:     4015 G-vectors     FFT dimensions: (  24,  24,  15)

     Estimated max dynamical RAM per process >     124.90 MB

     Estimated total dynamical RAM >     249.80 MB

     Check: negative/imaginary core charge=   -0.005277    0.000000

     Initial potential from superposition of free atoms
     Check: negative starting charge=   -0.053732

     starting charge   51.99690, renormalised to   52.00000

     negative rho (up, down):  5.373E-02 0.000E+00
     Starting wfc are   34 randomized atomic wfcs

     total cpu time spent up to now is       25.0 secs

     Self-consistent Calculation

     iteration #  1     ecut=    15.00 Ry     beta= 0.70
     Davidson diagonalization with overlap
     ethr =  1.00E-02,  avg # of iterations =  3.0

     negative rho (up, down):  1.590E-02 0.000E+00

     total cpu time spent up to now is       90.3 secs

     total energy              =    -393.38653014 Ry
     Harris-Foulkes estimate   =    -412.18122296 Ry
     estimated scf accuracy    <      24.22021732 Ry

     iteration #  2     ecut=    15.00 Ry     beta= 0.70
     Davidson diagonalization with overlap
     ethr =  1.00E-02,  avg # of iterations =  3.2

     negative rho (up, down):  4.808E-03 0.000E+00

     total cpu time spent up to now is      163.6 secs

     total energy              =    -398.12368864 Ry
     Harris-Foulkes estimate   =    -400.46127185 Ry
     estimated scf accuracy    <       3.75958052 Ry

     iteration #  3     ecut=    15.00 Ry     beta= 0.70
     Davidson diagonalization with overlap
     ethr =  7.23E-03,  avg # of iterations =  3.4

     negative rho (up, down):  9.880E-04 0.000E+00

     total cpu time spent up to now is      232.4 secs

     total energy              =    -398.95884783 Ry
     Harris-Foulkes estimate   =    -399.39415810 Ry
     estimated scf accuracy    <       0.79214197 Ry

     iteration #  4     ecut=    15.00 Ry     beta= 0.70
     Davidson diagonalization with overlap
     ethr =  1.52E-03,  avg # of iterations =  2.6

     total cpu time spent up to now is      287.1 secs

     total energy              =    -399.12489165 Ry
     Harris-Foulkes estimate   =    -399.13931950 Ry
     estimated scf accuracy    <       0.03304332 Ry

     iteration #  5     ecut=    15.00 Ry     beta= 0.70
     Davidson diagonalization with overlap
     ethr =  6.35E-05,  avg # of iterations =  2.6

     total cpu time spent up to now is      340.8 secs

     total energy              =    -399.13126174 Ry
     Harris-Foulkes estimate   =    -399.13137798 Ry
     estimated scf accuracy    <       0.00053154 Ry

     iteration #  6     ecut=    15.00 Ry     beta= 0.70
     Davidson diagonalization with overlap
     ethr =  1.02E-06,  avg # of iterations =  4.1

     total cpu time spent up to now is      413.7 secs

     total energy              =    -399.13149493 Ry
     Harris-Foulkes estimate   =    -399.13178627 Ry
     estimated scf accuracy    <       0.00063666 Ry

     iteration #  7     ecut=    15.00 Ry     beta= 0.70
     Davidson diagonalization with overlap
     ethr =  1.02E-06,  avg # of iterations =  3.6

     total cpu time spent up to now is      474.5 secs

     total energy              =    -399.13163770 Ry
     Harris-Foulkes estimate   =    -399.13169803 Ry
     estimated scf accuracy    <       0.00018256 Ry

     iteration #  8     ecut=    15.00 Ry     beta= 0.70
     Davidson diagonalization with overlap
     ethr =  3.51E-07,  avg # of iterations =  3.3

     total cpu time spent up to now is      526.4 secs

     total energy              =    -399.13166291 Ry
     Harris-Foulkes estimate   =    -399.13166489 Ry
     estimated scf accuracy    <       0.00000332 Ry

     iteration #  9     ecut=    15.00 Ry     beta= 0.70
     Davidson diagonalization with overlap
     ethr =  6.39E-09,  avg # of iterations =  3.3

     total cpu time spent up to now is      592.8 secs

     total energy              =    -399.13166404 Ry
     Harris-Foulkes estimate   =    -399.13166448 Ry
     estimated scf accuracy    <       0.00000072 Ry

     iteration # 10     ecut=    15.00 Ry     beta= 0.70
     Davidson diagonalization with overlap
     ethr =  1.38E-09,  avg # of iterations =  3.4

     total cpu time spent up to now is      655.1 secs

     total energy              =    -399.13166680 Ry
     Harris-Foulkes estimate   =    -399.13166694 Ry
     estimated scf accuracy    <       0.00000044 Ry

     iteration # 11     ecut=    15.00 Ry     beta= 0.70
     Davidson diagonalization with overlap
     ethr =  8.55E-10,  avg # of iterations =  2.8

     total cpu time spent up to now is      706.0 secs

     total energy              =    -399.13166682 Ry
     Harris-Foulkes estimate   =    -399.13166685 Ry
     estimated scf accuracy    <       0.00000006 Ry

     iteration # 12     ecut=    15.00 Ry     beta= 0.70
     Davidson diagonalization with overlap
     ethr =  1.11E-10,  avg # of iterations =  3.3

     total cpu time spent up to now is      756.1 secs

     total energy              =    -399.13166681 Ry
     Harris-Foulkes estimate   =    -399.13166682 Ry
     estimated scf accuracy    <          6.9E-09 Ry

     iteration # 13     ecut=    15.00 Ry     beta= 0.70
     Davidson diagonalization with overlap
     ethr =  1.34E-11,  avg # of iterations =  3.1

     total cpu time spent up to now is      810.1 secs

     total energy              =    -399.13166681 Ry
     Harris-Foulkes estimate   =    -399.13166682 Ry
     estimated scf accuracy    <          5.1E-10 Ry

     iteration # 14     ecut=    15.00 Ry     beta= 0.70
     Davidson diagonalization with overlap
     ethr =  9.87E-13,  avg # of iterations =  3.8

     total cpu time spent up to now is      875.4 secs

     total energy              =    -399.13166681 Ry
     Harris-Foulkes estimate   =    -399.13166681 Ry
     estimated scf accuracy    <          3.4E-11 Ry

     iteration # 15     ecut=    15.00 Ry     beta= 0.70
     Davidson diagonalization with overlap
     ethr =  1.00E-13,  avg # of iterations =  2.5

     total cpu time spent up to now is      930.4 secs

     total energy              =    -399.13166681 Ry
     Harris-Foulkes estimate   =    -399.13166681 Ry
     estimated scf accuracy    <          2.3E-12 Ry

     iteration # 16     ecut=    15.00 Ry     beta= 0.70
     Davidson diagonalization with overlap
     ethr =  1.00E-13,  avg # of iterations =  1.0

     total cpu time spent up to now is      967.2 secs

     End of self-consistent calculation

     Number of k-points >= 100: set verbosity='high' to print the bands.

     highest occupied level (ev):    13.2862

!    total energy              =    -399.13166681 Ry
     Harris-Foulkes estimate   =    -399.13166681 Ry
     estimated scf accuracy    <          2.0E-13 Ry

     The total energy is the sum of the following terms:

     one-electron contribution =     -51.26891947 Ry
     hartree contribution      =      63.88554957 Ry
     xc contribution           =    -109.26696091 Ry
     ewald contribution        =    -302.48133600 Ry

     convergence has been achieved in  16 iterations

     Writing output data file SnO2.save
 
     init_run     :     17.01s CPU     24.29s WALL (       1 calls)
     electrons    :    894.22s CPU    942.20s WALL (       1 calls)

     Called by init_run:
     wfcinit      :     16.89s CPU     24.05s WALL (       1 calls)
     potinit      :      0.02s CPU      0.04s WALL (       1 calls)
     hinit0       :      0.09s CPU      0.18s WALL (       1 calls)

     Called by electrons:
     c_bands      :    824.75s CPU    868.15s WALL (      16 calls)
     sum_band     :     69.34s CPU     73.88s WALL (      16 calls)
     v_of_rho     :      0.10s CPU      0.10s WALL (      17 calls)
     mix_rho      :      0.02s CPU      0.03s WALL (      16 calls)

     Called by c_bands:
     init_us_2    :      5.04s CPU      9.60s WALL (   40293 calls)
     cegterg      :    770.65s CPU    810.98s WALL (   19536 calls)

     Called by sum_band:

     Called by *egterg:
     h_psi        :    437.22s CPU    480.55s WALL (   80750 calls)
     g_psi        :      1.70s CPU      2.97s WALL (   59993 calls)
     cdiaghg      :    242.20s CPU    239.98s WALL (   79529 calls)

     Called by h_psi:
     h_psi:pot    :    435.84s CPU    478.46s WALL (   80750 calls)
     h_psi:calbec :     46.04s CPU     47.76s WALL (   80750 calls)
     vloc_psi     :    365.88s CPU    381.13s WALL (   80750 calls)
     add_vuspsi   :     23.79s CPU     49.17s WALL (   80750 calls)

     General routines
     calbec       :     46.01s CPU     47.55s WALL (   80750 calls)
     fft          :      0.04s CPU      0.05s WALL (     171 calls)
     ffts         :      0.00s CPU      0.00s WALL (      16 calls)
     fftw         :    426.01s CPU    413.67s WALL ( 3321510 calls)
 
     Parallel routines
     fft_scatt_xy :      7.61s CPU     42.63s WALL ( 3321697 calls)
     fft_scatt_yz :    366.01s CPU    107.64s WALL ( 3321697 calls)
 
     PWSCF        : 15m13.33s CPU    16m19.68s WALL

 
   This run was terminated on:   0:34:40   8Apr2018            

=------------------------------------------------------------------------------=
   JOB DONE.
=------------------------------------------------------------------------------=
