
     Program PWSCF v.6.2.2 starts on 11Apr2018 at  8:17:26 

     This program is part of the open-source Quantum ESPRESSO suite
     for quantum simulation of materials; please cite
         "P. Giannozzi et al., J. Phys.:Condens. Matter 21 395502 (2009);
         "P. Giannozzi et al., J. Phys.:Condens. Matter 29 465901 (2017);
          URL http://www.quantum-espresso.org", 
     in publications or presentations arising from this work. More details at
     http://www.quantum-espresso.org/quote

     Parallel version (MPI), running on     2 processors

     MPI processes distributed on     1 nodes
     R & G space division:  proc/nbgrp/npool/nimage =       2
     Reading input from Conv_acell-kp.in

     Current dimensions of program PWSCF are:
     Max number of different atomic species (ntypx) = 10
     Max number of k-points (npk) =  40000
     Max angular momentum in pseudopotentials (lmaxx) =  3

     Subspace diagonalization in iterative solution of the eigenvalue problem:
     a serial algorithm will be used

 
     Parallelization info
     --------------------
     sticks:   dense  smooth     PW     G-vecs:    dense   smooth      PW
     Min         332     332    110                 4313     4313     791
     Max         333     333    111                 4314     4314     792
     Sum         665     665    221                 8627     8627    1583
 


     bravais-lattice index     =            6
     lattice parameter (alat)  =       9.1100  a.u.
     unit-cell volume          =     506.5589 (a.u.)^3
     number of atoms/cell      =            6
     number of atomic types    =            2
     number of electrons       =        52.00
     number of Kohn-Sham states=           26
     kinetic-energy cutoff     =      25.0000  Ry
     charge density cutoff     =     100.0000  Ry
     convergence threshold     =      1.0E-12
     mixing beta               =       0.7000
     number of iterations used =            8  plain     mixing
     Exchange-correlation      = PBE ( 1  4  3  4 0 0)
     nstep                     =           50


     celldm(1)=   9.110000  celldm(2)=   0.000000  celldm(3)=   0.670000
     celldm(4)=   0.000000  celldm(5)=   0.000000  celldm(6)=   0.000000

     crystal axes: (cart. coord. in units of alat)
               a(1) = (   1.000000   0.000000   0.000000 )  
               a(2) = (   0.000000   1.000000   0.000000 )  
               a(3) = (   0.000000   0.000000   0.670000 )  

     reciprocal axes: (cart. coord. in units 2 pi/alat)
               b(1) = (  1.000000  0.000000  0.000000 )  
               b(2) = (  0.000000  1.000000  0.000000 )  
               b(3) = (  0.000000  0.000000  1.492537 )  


     PseudoPot. # 1 for Sn read from file:
     ../../Pseudo_potentials/Sn_PBE.upf
     MD5 check sum: 78e6386ae56e929f0568ae8bf606a80c
     Pseudo is Norm-conserving + core correction, Zval = 14.0
     Generated using ONCVPSP code by D. R. Hamann
     Using radial grid of 1628 points,  6 beta functions with: 
                l(1) =   0
                l(2) =   0
                l(3) =   1
                l(4) =   1
                l(5) =   2
                l(6) =   2

     PseudoPot. # 2 for O  read from file:
     ../../Pseudo_potentials/O_PBE.upf
     MD5 check sum: 3e3f909f7470e8921608ab6b1f57bbae
     Pseudo is Norm-conserving + core correction, Zval =  6.0
     Generated using ONCVPSP code by D. R. Hamann
     Using radial grid of  936 points,  5 beta functions with: 
                l(1) =   0
                l(2) =   0
                l(3) =   1
                l(4) =   1
                l(5) =   2

     atomic species   valence    mass     pseudopotential
        Sn            14.00   118.71000     Sn( 1.00)
        O              6.00    15.99900     O ( 1.00)

      4 Sym. Ops. (no inversion) found



   Cartesian axes

     site n.     atom                  positions (alat units)
         1           Sn  tau(   1) = (   0.0000000   0.0000000   0.0000000  )
         2           Sn  tau(   2) = (   0.5000000   0.5000000   0.3350000  )
         3           O   tau(   3) = (   0.8060000   0.1930000   0.3350000  )
         4           O   tau(   4) = (   0.1930000   0.8060000   0.3350000  )
         5           O   tau(   5) = (   0.3060000   0.3060000   0.0000000  )
         6           O   tau(   6) = (   0.6930000   0.6930000   0.0000000  )

     number of k points=  2041

     Number of k-points >= 100: set verbosity='high' to print them.

     Dense  grid:     8627 G-vectors     FFT dimensions: (  30,  30,  20)

     Estimated max dynamical RAM per process >     442.75 MB

     Estimated total dynamical RAM >     885.49 MB

     Check: negative/imaginary core charge=   -0.002394    0.000000

     Initial potential from superposition of free atoms
     Check: negative starting charge=   -0.009566

     starting charge   51.99690, renormalised to   52.00000

     negative rho (up, down):  9.566E-03 0.000E+00
     Starting wfc are   34 randomized atomic wfcs

     total cpu time spent up to now is       56.0 secs

     Self-consistent Calculation

     iteration #  1     ecut=    25.00 Ry     beta= 0.70
     Davidson diagonalization with overlap
     ethr =  1.00E-02,  avg # of iterations =  2.0

     negative rho (up, down):  2.854E-03 0.000E+00

     total cpu time spent up to now is      221.3 secs

     total energy              =    -429.62762392 Ry
     Harris-Foulkes estimate   =    -432.65757371 Ry
     estimated scf accuracy    <       4.17126938 Ry

     iteration #  2     ecut=    25.00 Ry     beta= 0.70
     Davidson diagonalization with overlap
     ethr =  8.02E-03,  avg # of iterations =  2.0

     negative rho (up, down):  8.831E-04 0.000E+00

     total cpu time spent up to now is      367.1 secs

     total energy              =    -430.40277098 Ry
     Harris-Foulkes estimate   =    -430.54373856 Ry
     estimated scf accuracy    <       0.24979140 Ry

     iteration #  3     ecut=    25.00 Ry     beta= 0.70
     Davidson diagonalization with overlap
     ethr =  4.80E-04,  avg # of iterations =  2.8

     negative rho (up, down):  1.591E-04 0.000E+00

     total cpu time spent up to now is      525.4 secs

     total energy              =    -430.44880505 Ry
     Harris-Foulkes estimate   =    -430.46255766 Ry
     estimated scf accuracy    <       0.02954217 Ry

     iteration #  4     ecut=    25.00 Ry     beta= 0.70
     Davidson diagonalization with overlap
     ethr =  5.68E-05,  avg # of iterations =  2.8

     total cpu time spent up to now is      682.8 secs

     total energy              =    -430.45416389 Ry
     Harris-Foulkes estimate   =    -430.45597305 Ry
     estimated scf accuracy    <       0.00353628 Ry

     iteration #  5     ecut=    25.00 Ry     beta= 0.70
     Davidson diagonalization with overlap
     ethr =  6.80E-06,  avg # of iterations =  3.0

     total cpu time spent up to now is      844.8 secs

     total energy              =    -430.45503206 Ry
     Harris-Foulkes estimate   =    -430.45512025 Ry
     estimated scf accuracy    <       0.00017872 Ry

     iteration #  6     ecut=    25.00 Ry     beta= 0.70
     Davidson diagonalization with overlap
     ethr =  3.44E-07,  avg # of iterations =  3.0

     total cpu time spent up to now is     1007.4 secs

     total energy              =    -430.45507800 Ry
     Harris-Foulkes estimate   =    -430.45508321 Ry
     estimated scf accuracy    <       0.00001187 Ry

     iteration #  7     ecut=    25.00 Ry     beta= 0.70
     Davidson diagonalization with overlap
     ethr =  2.28E-08,  avg # of iterations =  3.1

     total cpu time spent up to now is     1162.2 secs

     total energy              =    -430.45507928 Ry
     Harris-Foulkes estimate   =    -430.45508045 Ry
     estimated scf accuracy    <       0.00000284 Ry

     iteration #  8     ecut=    25.00 Ry     beta= 0.70
     Davidson diagonalization with overlap
     ethr =  5.47E-09,  avg # of iterations =  2.9

     total cpu time spent up to now is     1312.3 secs

     total energy              =    -430.45507974 Ry
     Harris-Foulkes estimate   =    -430.45507976 Ry
     estimated scf accuracy    <       0.00000005 Ry

     iteration #  9     ecut=    25.00 Ry     beta= 0.70
     Davidson diagonalization with overlap
     ethr =  8.82E-11,  avg # of iterations =  3.3

     total cpu time spent up to now is     1505.4 secs

     total energy              =    -430.45507976 Ry
     Harris-Foulkes estimate   =    -430.45507976 Ry
     estimated scf accuracy    <       0.00000002 Ry

     iteration # 10     ecut=    25.00 Ry     beta= 0.70
     Davidson diagonalization with overlap
     ethr =  3.74E-11,  avg # of iterations =  2.9

     total cpu time spent up to now is     1651.2 secs

     total energy              =    -430.45507976 Ry
     Harris-Foulkes estimate   =    -430.45507976 Ry
     estimated scf accuracy    <          4.3E-09 Ry

     iteration # 11     ecut=    25.00 Ry     beta= 0.70
     Davidson diagonalization with overlap
     ethr =  8.36E-12,  avg # of iterations =  3.0

     total cpu time spent up to now is     1813.2 secs

     total energy              =    -430.45507976 Ry
     Harris-Foulkes estimate   =    -430.45507976 Ry
     estimated scf accuracy    <          1.2E-10 Ry

     iteration # 12     ecut=    25.00 Ry     beta= 0.70
     Davidson diagonalization with overlap
     ethr =  2.33E-13,  avg # of iterations =  3.0

     total cpu time spent up to now is     1973.5 secs

     total energy              =    -430.45507976 Ry
     Harris-Foulkes estimate   =    -430.45507976 Ry
     estimated scf accuracy    <          1.9E-12 Ry

     iteration # 13     ecut=    25.00 Ry     beta= 0.70
     Davidson diagonalization with overlap
     ethr =  1.00E-13,  avg # of iterations =  1.0

     total cpu time spent up to now is     2086.5 secs

     End of self-consistent calculation

     Number of k-points >= 100: set verbosity='high' to print the bands.

     highest occupied level (ev):     9.8293

!    total energy              =    -430.45507976 Ry
     Harris-Foulkes estimate   =    -430.45507976 Ry
     estimated scf accuracy    <          6.5E-14 Ry

     The total energy is the sum of the following terms:

     one-electron contribution =     -96.64899726 Ry
     hartree contribution      =      85.51212084 Ry
     xc contribution           =    -116.83686500 Ry
     ewald contribution        =    -302.48133834 Ry

     convergence has been achieved in  13 iterations

     Forces acting on atoms (cartesian axes, Ry/au):

     atom    1 type  1   force =     0.00043296    0.00043296    0.00000000
     atom    2 type  1   force =    -0.00003750   -0.00003750    0.00000000
     atom    3 type  2   force =     0.01410147   -0.01361332    0.00000000
     atom    4 type  2   force =    -0.01361332    0.01410147    0.00000000
     atom    5 type  2   force =     0.01343068    0.01343068    0.00000000
     atom    6 type  2   force =    -0.01431428   -0.01431428    0.00000000

     Total force =     0.039234     Total SCF correction =     0.000001


     Computing stress (Cartesian axis) and pressure

          total   stress  (Ry/bohr**3)                   (kbar)     P=-9551.29
  -0.06528016   0.00000027   0.00000000      -9603.04      0.04      0.00
   0.00000027  -0.06528016   0.00000000          0.04  -9603.04      0.00
   0.00000000   0.00000000  -0.06422466          0.00      0.00  -9447.77


     BFGS Geometry Optimization

     number of scf cycles    =   1
     number of bfgs steps    =   0

     enthalpy new            =    -430.4550797574 Ry

     new trust radius        =       0.5000000000 bohr
     new conv_thr            =            1.0E-12 Ry

     new unit-cell volume =    356.53206 a.u.^3 (    52.83260 Ang^3 )
     density =      9.47356 g/cm^3

CELL_PARAMETERS (alat=  9.11000000)
   0.888922769   0.000000000   0.000000000
   0.000000000   0.888922769   0.000000000
   0.000000000   0.000000000   0.596781562

ATOMIC_POSITIONS (crystal)
Sn       0.000003235   0.000003235   0.000000000
Sn       0.499999720   0.499999720   0.500000000
O        0.806105354   0.192898293   0.500000000
O        0.192898293   0.806105354   0.500000000
O        0.306100342   0.306100342   0.000000000
O        0.692893056   0.692893056   0.000000000



     Writing output data file SnO2.save
     Check: negative starting charge=   -0.009566
     NEW-OLD atomic charge density approx. for the potential

     Check: negative/imaginary core charge=   -0.001408    0.000000
     Check: negative starting charge=   -0.001844

     negative rho (up, down):  1.259E+00 0.000E+00
     extrapolated charge   30.11998, renormalised to   52.00000

     total cpu time spent up to now is     2130.3 secs

     Self-consistent Calculation

     iteration #  1     ecut=    25.00 Ry     beta= 0.70
     Davidson diagonalization with overlap
     c_bands:  1 eigenvalues not converged
     c_bands:  1 eigenvalues not converged
     c_bands:  1 eigenvalues not converged
     c_bands:  1 eigenvalues not converged
     c_bands:  1 eigenvalues not converged
     c_bands:  1 eigenvalues not converged
     ethr =  1.00E-06,  avg # of iterations = 12.4

     total cpu time spent up to now is     2650.4 secs

     total energy              =    -402.05671173 Ry
     Harris-Foulkes estimate   =    -475.65729154 Ry
     estimated scf accuracy    <      58.32360589 Ry

     iteration #  2     ecut=    25.00 Ry     beta= 0.70
     Davidson diagonalization with overlap
     ethr =  1.00E-02,  avg # of iterations =  5.4

     total cpu time spent up to now is     2908.8 secs

     total energy              =    -436.52559290 Ry
     Harris-Foulkes estimate   =    -447.73268243 Ry
     estimated scf accuracy    <      17.34987202 Ry

     iteration #  3     ecut=    25.00 Ry     beta= 0.70
     Davidson diagonalization with overlap
     ethr =  1.00E-02,  avg # of iterations =  2.6

     total cpu time spent up to now is     3082.8 secs

     total energy              =    -439.52850766 Ry
     Harris-Foulkes estimate   =    -439.89960718 Ry
     estimated scf accuracy    <       0.69690627 Ry

     iteration #  4     ecut=    25.00 Ry     beta= 0.70
     Davidson diagonalization with overlap
     ethr =  1.34E-03,  avg # of iterations =  1.9

     total cpu time spent up to now is     3205.8 secs

     total energy              =    -439.47172359 Ry
     Harris-Foulkes estimate   =    -439.57528687 Ry
     estimated scf accuracy    <       0.16522974 Ry

     iteration #  5     ecut=    25.00 Ry     beta= 0.70
     Davidson diagonalization with overlap
     ethr =  3.18E-04,  avg # of iterations =  2.0

     negative rho (up, down):  1.287E-04 0.000E+00

     total cpu time spent up to now is     3344.9 secs

     total energy              =    -439.47078162 Ry
     Harris-Foulkes estimate   =    -439.48865520 Ry
     estimated scf accuracy    <       0.02387758 Ry

     iteration #  6     ecut=    25.00 Ry     beta= 0.70
     Davidson diagonalization with overlap
     ethr =  4.59E-05,  avg # of iterations =  2.0

     negative rho (up, down):  3.760E-04 0.000E+00

     total cpu time spent up to now is     3506.8 secs

     total energy              =    -439.47499349 Ry
     Harris-Foulkes estimate   =    -439.47576369 Ry
     estimated scf accuracy    <       0.00144094 Ry

     iteration #  7     ecut=    25.00 Ry     beta= 0.70
     Davidson diagonalization with overlap
     ethr =  2.77E-06,  avg # of iterations =  2.1

     negative rho (up, down):  4.741E-05 0.000E+00

     total cpu time spent up to now is     3662.7 secs

     total energy              =    -439.47572539 Ry
     Harris-Foulkes estimate   =    -439.47577776 Ry
     estimated scf accuracy    <       0.00008833 Ry

     iteration #  8     ecut=    25.00 Ry     beta= 0.70
     Davidson diagonalization with overlap
     ethr =  1.70E-07,  avg # of iterations =  2.0

     total cpu time spent up to now is     3814.6 secs

     total energy              =    -439.47573495 Ry
     Harris-Foulkes estimate   =    -439.47573882 Ry
     estimated scf accuracy    <       0.00000674 Ry

     iteration #  9     ecut=    25.00 Ry     beta= 0.70
     Davidson diagonalization with overlap
     ethr =  1.30E-08,  avg # of iterations =  2.5

     total cpu time spent up to now is     3977.7 secs

     total energy              =    -439.47573586 Ry
     Harris-Foulkes estimate   =    -439.47573617 Ry
     estimated scf accuracy    <       0.00000054 Ry

     iteration # 10     ecut=    25.00 Ry     beta= 0.70
     Davidson diagonalization with overlap
     ethr =  1.04E-09,  avg # of iterations =  2.8

     total cpu time spent up to now is     4133.2 secs

     total energy              =    -439.47573596 Ry
     Harris-Foulkes estimate   =    -439.47573599 Ry
     estimated scf accuracy    <       0.00000006 Ry

     iteration # 11     ecut=    25.00 Ry     beta= 0.70
     Davidson diagonalization with overlap
     ethr =  1.11E-10,  avg # of iterations =  2.6

     total cpu time spent up to now is     4300.3 secs

     total energy              =    -439.47573597 Ry
     Harris-Foulkes estimate   =    -439.47573597 Ry
     estimated scf accuracy    <          1.1E-09 Ry

     iteration # 12     ecut=    25.00 Ry     beta= 0.70
     Davidson diagonalization with overlap
     ethr =  2.15E-12,  avg # of iterations =  2.7

     total cpu time spent up to now is     4465.3 secs

     total energy              =    -439.47573597 Ry
     Harris-Foulkes estimate   =    -439.47573597 Ry
     estimated scf accuracy    <          4.9E-11 Ry

     iteration # 13     ecut=    25.00 Ry     beta= 0.70
     Davidson diagonalization with overlap
     ethr =  1.00E-13,  avg # of iterations =  2.7

     total cpu time spent up to now is     4625.9 secs

     total energy              =    -439.47573597 Ry
     Harris-Foulkes estimate   =    -439.47573597 Ry
     estimated scf accuracy    <          4.1E-12 Ry

     iteration # 14     ecut=    25.00 Ry     beta= 0.70
     Davidson diagonalization with overlap
     ethr =  1.00E-13,  avg # of iterations =  1.0

     total cpu time spent up to now is     4739.2 secs

     End of self-consistent calculation

     Number of k-points >= 100: set verbosity='high' to print the bands.

     highest occupied level (ev):    16.0277

!    total energy              =    -439.47573597 Ry
     Harris-Foulkes estimate   =    -439.47573597 Ry
     estimated scf accuracy    <          1.9E-13 Ry

     The total energy is the sum of the following terms:

     one-electron contribution =     -56.67908741 Ry
     hartree contribution      =      78.93270727 Ry
     xc contribution           =    -121.62053145 Ry
     ewald contribution        =    -340.10882438 Ry

     convergence has been achieved in  14 iterations

     Forces acting on atoms (cartesian axes, Ry/au):

     atom    1 type  1   force =    -0.00332325   -0.00332325    0.00000000
     atom    2 type  1   force =    -0.00270135   -0.00270135    0.00000000
     atom    3 type  2   force =    -0.05011016    0.04928754    0.00000000
     atom    4 type  2   force =     0.04928754   -0.05011016    0.00000000
     atom    5 type  2   force =    -0.04627148   -0.04627148    0.00000000
     atom    6 type  2   force =     0.05311869    0.05311869    0.00000000

     Total force =     0.140864     Total SCF correction =     0.000001


     Computing stress (Cartesian axis) and pressure

          total   stress  (Ry/bohr**3)                   (kbar)     P=-7231.44
  -0.05022239   0.00000034   0.00000000      -7387.97      0.05      0.00
   0.00000034  -0.05022239   0.00000000          0.05  -7387.97      0.00
   0.00000000   0.00000000  -0.04703028          0.00      0.00  -6918.39


     number of scf cycles    =   2
     number of bfgs steps    =   1

     enthalpy old            =    -430.4550797574 Ry
     enthalpy new            =    -439.4757359717 Ry

     CASE: enthalpy_new < enthalpy_old

     new trust radius        =       0.7078342295 bohr
     new conv_thr            =            1.0E-12 Ry

     new unit-cell volume =    217.68787 a.u.^3 (    32.25801 Ang^3 )
     density =     15.51593 g/cm^3

CELL_PARAMETERS (alat=  9.11000000)
   0.722306921   0.000000000   0.000000000
   0.000000000   0.722306921   0.000000000
   0.000000000   0.000000000   0.551868420

ATOMIC_POSITIONS (crystal)
Sn      -0.000690483  -0.000690483   0.000000000
Sn       0.499482958   0.499482958   0.500000000
O        0.794728418   0.204057398   0.500000000
O        0.204057398   0.794728418   0.500000000
O        0.295545378   0.295545378   0.000000000
O        0.704876330   0.704876330   0.000000000



     Writing output data file SnO2.save
     Check: negative starting charge=   -0.001844
     NEW-OLD atomic charge density approx. for the potential

     Check: negative/imaginary core charge=   -0.000515    0.000000

     negative rho (up, down):  2.447E+00 0.000E+00
     extrapolated charge   18.83569, renormalised to   52.00000

     total cpu time spent up to now is     4783.8 secs

     Self-consistent Calculation

     iteration #  1     ecut=    25.00 Ry     beta= 0.70
     Davidson diagonalization with overlap
     ethr =  1.00E-06,  avg # of iterations = 11.0

     total cpu time spent up to now is     5305.7 secs

     total energy              =    -392.73871783 Ry
     Harris-Foulkes estimate   =    -483.42588712 Ry
     estimated scf accuracy    <     130.50735225 Ry

     iteration #  2     ecut=    25.00 Ry     beta= 0.70
     Davidson diagonalization with overlap
     ethr =  1.00E-02,  avg # of iterations =  5.0

     total cpu time spent up to now is     5566.0 secs

     total energy              =    -437.81587669 Ry
     Harris-Foulkes estimate   =    -448.31990043 Ry
     estimated scf accuracy    <      15.23585291 Ry

     iteration #  3     ecut=    25.00 Ry     beta= 0.70
     Davidson diagonalization with overlap
     ethr =  1.00E-02,  avg # of iterations =  2.9

     total cpu time spent up to now is     5745.8 secs

     total energy              =    -441.19944749 Ry
     Harris-Foulkes estimate   =    -441.36429933 Ry
     estimated scf accuracy    <       0.31680783 Ry

     iteration #  4     ecut=    25.00 Ry     beta= 0.70
     Davidson diagonalization with overlap
     ethr =  6.09E-04,  avg # of iterations =  2.0

     total cpu time spent up to now is     5888.5 secs

     total energy              =    -441.21279700 Ry
     Harris-Foulkes estimate   =    -441.23333900 Ry
     estimated scf accuracy    <       0.03601250 Ry

     iteration #  5     ecut=    25.00 Ry     beta= 0.70
     Davidson diagonalization with overlap
     ethr =  6.93E-05,  avg # of iterations =  2.0

     total cpu time spent up to now is     6018.6 secs

     total energy              =    -441.21478741 Ry
     Harris-Foulkes estimate   =    -441.21557232 Ry
     estimated scf accuracy    <       0.00150391 Ry

     iteration #  6     ecut=    25.00 Ry     beta= 0.70
     Davidson diagonalization with overlap
     ethr =  2.89E-06,  avg # of iterations =  2.0

     total cpu time spent up to now is     6167.5 secs

     total energy              =    -441.21497711 Ry
     Harris-Foulkes estimate   =    -441.21500354 Ry
     estimated scf accuracy    <       0.00004773 Ry

     iteration #  7     ecut=    25.00 Ry     beta= 0.70
     Davidson diagonalization with overlap
     ethr =  9.18E-08,  avg # of iterations =  3.0

     total cpu time spent up to now is     6342.4 secs

     total energy              =    -441.21498956 Ry
     Harris-Foulkes estimate   =    -441.21499167 Ry
     estimated scf accuracy    <       0.00000467 Ry

     iteration #  8     ecut=    25.00 Ry     beta= 0.70
     Davidson diagonalization with overlap
     ethr =  8.98E-09,  avg # of iterations =  2.7

     total cpu time spent up to now is     6495.8 secs

     total energy              =    -441.21499028 Ry
     Harris-Foulkes estimate   =    -441.21499046 Ry
     estimated scf accuracy    <       0.00000033 Ry

     iteration #  9     ecut=    25.00 Ry     beta= 0.70
     Davidson diagonalization with overlap
     ethr =  6.29E-10,  avg # of iterations =  2.1

     total cpu time spent up to now is     6647.4 secs

     total energy              =    -441.21499033 Ry
     Harris-Foulkes estimate   =    -441.21499035 Ry
     estimated scf accuracy    <       0.00000002 Ry

     iteration # 10     ecut=    25.00 Ry     beta= 0.70
     Davidson diagonalization with overlap
     ethr =  3.62E-11,  avg # of iterations =  2.3

     total cpu time spent up to now is     6809.3 secs

     total energy              =    -441.21499034 Ry
     Harris-Foulkes estimate   =    -441.21499034 Ry
     estimated scf accuracy    <          6.2E-10 Ry

     iteration # 11     ecut=    25.00 Ry     beta= 0.70
     Davidson diagonalization with overlap
     ethr =  1.19E-12,  avg # of iterations =  2.1

     total cpu time spent up to now is     6971.4 secs

     total energy              =    -441.21499034 Ry
     Harris-Foulkes estimate   =    -441.21499034 Ry
     estimated scf accuracy    <          4.0E-11 Ry

     iteration # 12     ecut=    25.00 Ry     beta= 0.70
     Davidson diagonalization with overlap
     ethr =  1.00E-13,  avg # of iterations =  2.0

     total cpu time spent up to now is     7122.2 secs

     total energy              =    -441.21499034 Ry
     Harris-Foulkes estimate   =    -441.21499034 Ry
     estimated scf accuracy    <          3.3E-12 Ry

     iteration # 13     ecut=    25.00 Ry     beta= 0.70
     Davidson diagonalization with overlap
     ethr =  1.00E-13,  avg # of iterations =  1.0

     total cpu time spent up to now is     7235.3 secs

     End of self-consistent calculation

     Number of k-points >= 100: set verbosity='high' to print the bands.

     highest occupied level (ev):    31.4504

!    total energy              =    -441.21499034 Ry
     Harris-Foulkes estimate   =    -441.21499034 Ry
     estimated scf accuracy    <          4.2E-14 Ry

     The total energy is the sum of the following terms:

     one-electron contribution =      29.79716226 Ry
     hartree contribution      =      61.37663754 Ry
     xc contribution           =    -127.50363121 Ry
     ewald contribution        =    -404.88515894 Ry

     convergence has been achieved in  13 iterations

     Forces acting on atoms (cartesian axes, Ry/au):

     atom    1 type  1   force =     0.05533562    0.05533562    0.00000000
     atom    2 type  1   force =     0.00844282    0.00844282    0.00000000
     atom    3 type  2   force =     0.65174216   -0.64762458    0.00000000
     atom    4 type  2   force =    -0.64762458    0.65174216    0.00000000
     atom    5 type  2   force =     0.61606741    0.61606741    0.00000000
     atom    6 type  2   force =    -0.68396344   -0.68396344    0.00000000

     Total force =     1.841013     Total SCF correction =     0.000001


     Computing stress (Cartesian axis) and pressure

          total   stress  (Ry/bohr**3)                   (kbar)     P= 6169.68
   0.05466721   0.00000382   0.00000000       8041.82      0.56      0.00
   0.00000382   0.05466721   0.00000000          0.56   8041.82      0.00
   0.00000000   0.00000000   0.01648742          0.00      0.00   2425.38


     number of scf cycles    =   3
     number of bfgs steps    =   2

     enthalpy old            =    -439.4757359717 Ry
     enthalpy new            =    -441.2149903389 Ry

     CASE: enthalpy_new < enthalpy_old

     new trust radius        =       0.6985642912 bohr
     new conv_thr            =            1.0E-12 Ry

     new unit-cell volume =    232.02638 a.u.^3 (    34.38276 Ang^3 )
     density =     14.55709 g/cm^3

CELL_PARAMETERS (alat=  9.11000000)
   0.853562213   0.000000000   0.000000000
   0.000000000   0.853562213   0.000000000
   0.000000000   0.000000000   0.421222810

ATOMIC_POSITIONS (crystal)
Sn       0.001752162   0.001752162   0.000000000
Sn       0.499826638   0.499826638   0.500000000
O        0.823480857   0.175485609   0.500000000
O        0.175485609   0.823480857   0.500000000
O        0.322739129   0.322739129   0.000000000
O        0.674715604   0.674715604   0.000000000



     Writing output data file SnO2.save
     NEW-OLD atomic charge density approx. for the potential

     Check: negative/imaginary core charge=   -0.000777    0.000000
     extrapolated charge   55.21325, renormalised to   52.00000

     total cpu time spent up to now is     7280.0 secs

     Self-consistent Calculation

     iteration #  1     ecut=    25.00 Ry     beta= 0.70
     Davidson diagonalization with overlap
     ethr =  1.00E-06,  avg # of iterations =  8.3

     total cpu time spent up to now is     7720.9 secs

     total energy              =    -437.42598709 Ry
     Harris-Foulkes estimate   =    -432.93684350 Ry
     estimated scf accuracy    <       0.46456219 Ry

     iteration #  2     ecut=    25.00 Ry     beta= 0.70
     Davidson diagonalization with overlap
     ethr =  8.93E-04,  avg # of iterations =  2.8

     total cpu time spent up to now is     7897.1 secs

     total energy              =    -437.68094571 Ry
     Harris-Foulkes estimate   =    -437.81092601 Ry
     estimated scf accuracy    <       0.23815475 Ry

     iteration #  3     ecut=    25.00 Ry     beta= 0.70
     Davidson diagonalization with overlap
     ethr =  4.58E-04,  avg # of iterations =  2.0

     total cpu time spent up to now is     8042.6 secs

     total energy              =    -437.70276984 Ry
     Harris-Foulkes estimate   =    -437.70928905 Ry
     estimated scf accuracy    <       0.01379353 Ry

     iteration #  4     ecut=    25.00 Ry     beta= 0.70
     Davidson diagonalization with overlap
     ethr =  2.65E-05,  avg # of iterations =  2.1

     total cpu time spent up to now is     8203.0 secs

     total energy              =    -437.70513070 Ry
     Harris-Foulkes estimate   =    -437.70513546 Ry
     estimated scf accuracy    <       0.00022484 Ry

     iteration #  5     ecut=    25.00 Ry     beta= 0.70
     Davidson diagonalization with overlap
     ethr =  4.32E-07,  avg # of iterations =  2.3

     total cpu time spent up to now is     8359.0 secs

     total energy              =    -437.70516240 Ry
     Harris-Foulkes estimate   =    -437.70518668 Ry
     estimated scf accuracy    <       0.00004173 Ry

     iteration #  6     ecut=    25.00 Ry     beta= 0.70
     Davidson diagonalization with overlap
     ethr =  8.02E-08,  avg # of iterations =  2.0

     total cpu time spent up to now is     8512.4 secs

     total energy              =    -437.70516978 Ry
     Harris-Foulkes estimate   =    -437.70517037 Ry
     estimated scf accuracy    <       0.00000102 Ry

     iteration #  7     ecut=    25.00 Ry     beta= 0.70
     Davidson diagonalization with overlap
     ethr =  1.97E-09,  avg # of iterations =  2.1

     total cpu time spent up to now is     8677.7 secs

     total energy              =    -437.70517007 Ry
     Harris-Foulkes estimate   =    -437.70517009 Ry
     estimated scf accuracy    <       0.00000005 Ry

     iteration #  8     ecut=    25.00 Ry     beta= 0.70
     Davidson diagonalization with overlap
     ethr =  9.63E-11,  avg # of iterations =  2.1

     total cpu time spent up to now is     8841.7 secs

     total energy              =    -437.70517008 Ry
     Harris-Foulkes estimate   =    -437.70517008 Ry
     estimated scf accuracy    <       0.00000001 Ry

     iteration #  9     ecut=    25.00 Ry     beta= 0.70
     Davidson diagonalization with overlap
     ethr =  1.97E-11,  avg # of iterations =  2.1

     total cpu time spent up to now is     8992.6 secs

     total energy              =    -437.70517008 Ry
     Harris-Foulkes estimate   =    -437.70517008 Ry
     estimated scf accuracy    <          1.0E-09 Ry

     iteration # 10     ecut=    25.00 Ry     beta= 0.70
     Davidson diagonalization with overlap
     ethr =  1.99E-12,  avg # of iterations =  2.0

     total cpu time spent up to now is     9149.4 secs

     total energy              =    -437.70517008 Ry
     Harris-Foulkes estimate   =    -437.70517008 Ry
     estimated scf accuracy    <          4.7E-11 Ry

     iteration # 11     ecut=    25.00 Ry     beta= 0.70
     Davidson diagonalization with overlap
     ethr =  1.00E-13,  avg # of iterations =  2.0

     total cpu time spent up to now is     9311.1 secs

     End of self-consistent calculation

     Number of k-points >= 100: set verbosity='high' to print the bands.

     highest occupied level (ev):    30.2033

!    total energy              =    -437.70517008 Ry
     Harris-Foulkes estimate   =    -437.70517008 Ry
     estimated scf accuracy    <          9.0E-13 Ry

     The total energy is the sum of the following terms:

     one-electron contribution =     -35.24713835 Ry
     hartree contribution      =      88.66445061 Ry
     xc contribution           =    -127.69190834 Ry
     ewald contribution        =    -363.43057399 Ry

     convergence has been achieved in  11 iterations

     Forces acting on atoms (cartesian axes, Ry/au):

     atom    1 type  1   force =     0.02820334    0.02820334    0.00000000
     atom    2 type  1   force =    -0.06575804   -0.06575804    0.00000000
     atom    3 type  2   force =    -1.81975311    1.76752980    0.00000000
     atom    4 type  2   force =     1.76752980   -1.81975311    0.00000000
     atom    5 type  2   force =    -1.74983497   -1.74983497    0.00000000
     atom    6 type  2   force =     1.83961299    1.83961299    0.00000000

     Total force =     5.076787     Total SCF correction =     0.000003


     Computing stress (Cartesian axis) and pressure

          total   stress  (Ry/bohr**3)                   (kbar)     P= 5864.82
  -0.00013953   0.00002593  -0.00000000        -20.53      3.81     -0.00
   0.00002593  -0.00013953   0.00000000          3.81    -20.53      0.00
  -0.00000000   0.00000000   0.11988383         -0.00      0.00  17635.52


     number of scf cycles    =   4
     number of bfgs steps    =   3

     enthalpy old            =    -441.2149903389 Ry
     enthalpy new            =    -437.7051700792 Ry

     CASE: enthalpy_new > enthalpy_old

     new trust radius        =       0.2643661754 bohr
     new conv_thr            =            1.0E-12 Ry

     new unit-cell volume =    224.46396 a.u.^3 (    33.26213 Ang^3 )
     density =     15.04753 g/cm^3

CELL_PARAMETERS (alat=  9.11000000)
   0.759030170   0.000000000   0.000000000
   0.000000000   0.759030170   0.000000000
   0.000000000   0.000000000   0.515315751

ATOMIC_POSITIONS (crystal)
Sn      -0.000007067  -0.000007067   0.000000000
Sn       0.499579114   0.499579114   0.500000000
O        0.802772916   0.196063443   0.500000000
O        0.196063443   0.802772916   0.500000000
O        0.303153779   0.303153779   0.000000000
O        0.696437815   0.696437815   0.000000000



     Writing output data file SnO2.save
     NEW-OLD atomic charge density approx. for the potential

     Check: negative/imaginary core charge=   -0.000501    0.000000
     extrapolated charge   50.24817, renormalised to   52.00000

     total cpu time spent up to now is     9355.9 secs

     Self-consistent Calculation

     iteration #  1     ecut=    25.00 Ry     beta= 0.70
     Davidson diagonalization with overlap
     ethr =  1.00E-06,  avg # of iterations =  7.0

     total cpu time spent up to now is     9763.9 secs

     total energy              =    -441.69208536 Ry
     Harris-Foulkes estimate   =    -443.06411784 Ry
     estimated scf accuracy    <       0.24120182 Ry

     iteration #  2     ecut=    25.00 Ry     beta= 0.70
     Davidson diagonalization with overlap
     ethr =  4.64E-04,  avg # of iterations =  2.1

     total cpu time spent up to now is     9930.6 secs

     total energy              =    -441.81299254 Ry
     Harris-Foulkes estimate   =    -441.83914707 Ry
     estimated scf accuracy    <       0.05038385 Ry

     iteration #  3     ecut=    25.00 Ry     beta= 0.70
     Davidson diagonalization with overlap
     ethr =  9.69E-05,  avg # of iterations =  2.0

     total cpu time spent up to now is    10081.3 secs

     total energy              =    -441.81839377 Ry
     Harris-Foulkes estimate   =    -441.81904539 Ry
     estimated scf accuracy    <       0.00232378 Ry

     iteration #  4     ecut=    25.00 Ry     beta= 0.70
     Davidson diagonalization with overlap
     ethr =  4.47E-06,  avg # of iterations =  2.0

     total cpu time spent up to now is    10243.8 secs

     total energy              =    -441.81881793 Ry
     Harris-Foulkes estimate   =    -441.81882504 Ry
     estimated scf accuracy    <       0.00006399 Ry

     iteration #  5     ecut=    25.00 Ry     beta= 0.70
     Davidson diagonalization with overlap
     ethr =  1.23E-07,  avg # of iterations =  2.6

     total cpu time spent up to now is    10413.4 secs

     total energy              =    -441.81882723 Ry
     Harris-Foulkes estimate   =    -441.81883922 Ry
     estimated scf accuracy    <       0.00002329 Ry

     iteration #  6     ecut=    25.00 Ry     beta= 0.70
     Davidson diagonalization with overlap
     ethr =  4.48E-08,  avg # of iterations =  2.0

     total cpu time spent up to now is    10567.2 secs

     total energy              =    -441.81883208 Ry
     Harris-Foulkes estimate   =    -441.81883228 Ry
     estimated scf accuracy    <       0.00000052 Ry

     iteration #  7     ecut=    25.00 Ry     beta= 0.70
     Davidson diagonalization with overlap
     ethr =  9.99E-10,  avg # of iterations =  2.0

     total cpu time spent up to now is    10732.4 secs

     total energy              =    -441.81883221 Ry
     Harris-Foulkes estimate   =    -441.81883223 Ry
     estimated scf accuracy    <       0.00000003 Ry

     iteration #  8     ecut=    25.00 Ry     beta= 0.70
     Davidson diagonalization with overlap
     ethr =  5.21E-11,  avg # of iterations =  2.0

     total cpu time spent up to now is    10896.0 secs

     total energy              =    -441.81883222 Ry
     Harris-Foulkes estimate   =    -441.81883222 Ry
     estimated scf accuracy    <          2.6E-09 Ry

     iteration #  9     ecut=    25.00 Ry     beta= 0.70
     Davidson diagonalization with overlap
     ethr =  4.94E-12,  avg # of iterations =  2.4

     total cpu time spent up to now is    11045.0 secs

     total energy              =    -441.81883222 Ry
     Harris-Foulkes estimate   =    -441.81883222 Ry
     estimated scf accuracy    <          3.3E-10 Ry

     iteration # 10     ecut=    25.00 Ry     beta= 0.70
     Davidson diagonalization with overlap
     ethr =  6.33E-13,  avg # of iterations =  2.0

     total cpu time spent up to now is    11197.1 secs

     total energy              =    -441.81883222 Ry
     Harris-Foulkes estimate   =    -441.81883222 Ry
     estimated scf accuracy    <          9.6E-12 Ry

     iteration # 11     ecut=    25.00 Ry     beta= 0.70
     Davidson diagonalization with overlap
     ethr =  1.00E-13,  avg # of iterations =  1.6

     total cpu time spent up to now is    11314.8 secs

     End of self-consistent calculation

     Number of k-points >= 100: set verbosity='high' to print the bands.

     highest occupied level (ev):    29.6850

!    total energy              =    -441.81883222 Ry
     Harris-Foulkes estimate   =    -441.81883222 Ry
     estimated scf accuracy    <          3.0E-13 Ry

     The total energy is the sum of the following terms:

     one-electron contribution =      17.70146709 Ry
     hartree contribution      =      65.47813474 Ry
     xc contribution           =    -127.32468339 Ry
     ewald contribution        =    -397.67375066 Ry

     convergence has been achieved in  11 iterations

     Forces acting on atoms (cartesian axes, Ry/au):

     atom    1 type  1   force =    -0.00407566   -0.00407566    0.00000000
     atom    2 type  1   force =     0.00613785    0.00613785    0.00000000
     atom    3 type  2   force =    -0.08842811    0.08558423    0.00000000
     atom    4 type  2   force =     0.08558423   -0.08842811    0.00000000
     atom    5 type  2   force =    -0.08674021   -0.08674021    0.00000000
     atom    6 type  2   force =     0.08752191    0.08752191    0.00000000

     Total force =     0.246505     Total SCF correction =     0.000002


     Computing stress (Cartesian axis) and pressure

          total   stress  (Ry/bohr**3)                   (kbar)     P= 5226.26
   0.03205348  -0.00000038   0.00000000       4715.23     -0.06      0.00
  -0.00000038   0.03205348   0.00000000         -0.06   4715.23      0.00
   0.00000000   0.00000000   0.04247530          0.00      0.00   6248.33


     number of scf cycles    =   5
     number of bfgs steps    =   3

     enthalpy old            =    -441.2149903389 Ry
     enthalpy new            =    -441.8188322168 Ry

     CASE: enthalpy_new < enthalpy_old

     new trust radius        =       0.4934286500 bohr
     new conv_thr            =            1.0E-12 Ry

     new unit-cell volume =    308.62567 a.u.^3 (    45.73361 Ang^3 )
     density =     10.94410 g/cm^3

CELL_PARAMETERS (alat=  9.11000000)
   0.824707304   0.000000000   0.000000000
   0.000000000   0.824707304   0.000000000
   0.000000000   0.000000000   0.600174080

ATOMIC_POSITIONS (crystal)
Sn       0.000315996   0.000315996   0.000000000
Sn       0.500331382   0.500331382   0.500000000
O        0.804763957   0.193965494   0.500000000
O        0.193965494   0.804763957   0.500000000
O        0.304707069   0.304707069   0.000000000
O        0.693916102   0.693916102   0.000000000



     Writing output data file SnO2.save
     NEW-OLD atomic charge density approx. for the potential

     Check: negative/imaginary core charge=   -0.001120    0.000000
     Check: negative starting charge=   -0.000712

     negative rho (up, down):  9.624E-04 0.000E+00
     extrapolated charge   66.17947, renormalised to   52.00000

     total cpu time spent up to now is    11359.2 secs

     Self-consistent Calculation

     iteration #  1     ecut=    25.00 Ry     beta= 0.70
     Davidson diagonalization with overlap
     c_bands:  1 eigenvalues not converged
     c_bands:  1 eigenvalues not converged
     c_bands:  1 eigenvalues not converged
     c_bands:  1 eigenvalues not converged
     c_bands:  1 eigenvalues not converged
     c_bands:  1 eigenvalues not converged
     c_bands:  1 eigenvalues not converged
     c_bands:  1 eigenvalues not converged
     c_bands:  1 eigenvalues not converged
     c_bands:  1 eigenvalues not converged
     c_bands:  1 eigenvalues not converged
     c_bands:  1 eigenvalues not converged
     c_bands:  1 eigenvalues not converged
     c_bands:  1 eigenvalues not converged
     c_bands:  1 eigenvalues not converged
     c_bands:  1 eigenvalues not converged
     c_bands:  1 eigenvalues not converged
     c_bands:  1 eigenvalues not converged
     c_bands:  1 eigenvalues not converged
     c_bands:  1 eigenvalues not converged
     c_bands:  1 eigenvalues not converged
     c_bands:  1 eigenvalues not converged
     c_bands:  1 eigenvalues not converged
     c_bands:  1 eigenvalues not converged
     c_bands:  1 eigenvalues not converged
     c_bands:  1 eigenvalues not converged
     ethr =  1.00E-06,  avg # of iterations = 13.0

     negative rho (up, down):  2.050E-04 0.000E+00

     total cpu time spent up to now is    11823.9 secs

     total energy              =    -429.68267133 Ry
     Harris-Foulkes estimate   =    -426.41298970 Ry
     estimated scf accuracy    <       6.61386791 Ry

     iteration #  2     ecut=    25.00 Ry     beta= 0.70
     Davidson diagonalization with overlap
     ethr =  1.00E-02,  avg # of iterations =  4.5

     negative rho (up, down):  9.650E-05 0.000E+00

     total cpu time spent up to now is    12067.3 secs

     total energy              =    -441.89879340 Ry
     Harris-Foulkes estimate   =    -445.58559052 Ry
     estimated scf accuracy    <       8.45118856 Ry

     iteration #  3     ecut=    25.00 Ry     beta= 0.70
     Davidson diagonalization with overlap
     ethr =  1.00E-02,  avg # of iterations =  2.0

     negative rho (up, down):  3.906E-05 0.000E+00

     total cpu time spent up to now is    12197.6 secs

     total energy              =    -441.66699291 Ry
     Harris-Foulkes estimate   =    -442.31851156 Ry
     estimated scf accuracy    <       1.96141314 Ry

     iteration #  4     ecut=    25.00 Ry     beta= 0.70
     Davidson diagonalization with overlap
     ethr =  3.77E-03,  avg # of iterations =  1.0

     total cpu time spent up to now is    12311.1 secs

     total energy              =    -441.38868935 Ry
     Harris-Foulkes estimate   =    -441.72354931 Ry
     estimated scf accuracy    <       0.79731356 Ry

     iteration #  5     ecut=    25.00 Ry     beta= 0.70
     Davidson diagonalization with overlap
     ethr =  1.53E-03,  avg # of iterations =  1.6

     total cpu time spent up to now is    12430.1 secs

     total energy              =    -441.31912850 Ry
     Harris-Foulkes estimate   =    -441.43110541 Ry
     estimated scf accuracy    <       0.17818716 Ry

     iteration #  6     ecut=    25.00 Ry     beta= 0.70
     Davidson diagonalization with overlap
     ethr =  3.43E-04,  avg # of iterations =  2.0

     total cpu time spent up to now is    12595.4 secs

     total energy              =    -441.35605283 Ry
     Harris-Foulkes estimate   =    -441.35649069 Ry
     estimated scf accuracy    <       0.00075644 Ry

     iteration #  7     ecut=    25.00 Ry     beta= 0.70
     Davidson diagonalization with overlap
     ethr =  1.45E-06,  avg # of iterations =  2.5

     total cpu time spent up to now is    12767.0 secs

     total energy              =    -441.35639212 Ry
     Harris-Foulkes estimate   =    -441.35646353 Ry
     estimated scf accuracy    <       0.00025998 Ry

     iteration #  8     ecut=    25.00 Ry     beta= 0.70
     Davidson diagonalization with overlap
     ethr =  5.00E-07,  avg # of iterations =  1.0

     total cpu time spent up to now is    12880.4 secs

     total energy              =    -441.35634698 Ry
     Harris-Foulkes estimate   =    -441.35640389 Ry
     estimated scf accuracy    <       0.00010927 Ry

     iteration #  9     ecut=    25.00 Ry     beta= 0.70
     Davidson diagonalization with overlap
     ethr =  2.10E-07,  avg # of iterations =  2.0

     total cpu time spent up to now is    13020.8 secs

     total energy              =    -441.35635606 Ry
     Harris-Foulkes estimate   =    -441.35635876 Ry
     estimated scf accuracy    <       0.00000585 Ry

     iteration # 10     ecut=    25.00 Ry     beta= 0.70
     Davidson diagonalization with overlap
     ethr =  1.12E-08,  avg # of iterations =  2.0

     total cpu time spent up to now is    13171.5 secs

     total energy              =    -441.35635692 Ry
     Harris-Foulkes estimate   =    -441.35635716 Ry
     estimated scf accuracy    <       0.00000043 Ry

     iteration # 11     ecut=    25.00 Ry     beta= 0.70
     Davidson diagonalization with overlap
     ethr =  8.26E-10,  avg # of iterations =  2.0

     total cpu time spent up to now is    13335.0 secs

     total energy              =    -441.35635698 Ry
     Harris-Foulkes estimate   =    -441.35635700 Ry
     estimated scf accuracy    <       0.00000005 Ry

     iteration # 12     ecut=    25.00 Ry     beta= 0.70
     Davidson diagonalization with overlap
     ethr =  8.80E-11,  avg # of iterations =  2.0

     total cpu time spent up to now is    13479.7 secs

     total energy              =    -441.35635699 Ry
     Harris-Foulkes estimate   =    -441.35635699 Ry
     estimated scf accuracy    <          3.6E-09 Ry

     iteration # 13     ecut=    25.00 Ry     beta= 0.70
     Davidson diagonalization with overlap
     ethr =  6.99E-12,  avg # of iterations =  2.0

     total cpu time spent up to now is    13622.7 secs

     total energy              =    -441.35635699 Ry
     Harris-Foulkes estimate   =    -441.35635699 Ry
     estimated scf accuracy    <          4.0E-10 Ry

     iteration # 14     ecut=    25.00 Ry     beta= 0.70
     Davidson diagonalization with overlap
     ethr =  7.62E-13,  avg # of iterations =  2.0

     total cpu time spent up to now is    13775.5 secs

     total energy              =    -441.35635699 Ry
     Harris-Foulkes estimate   =    -441.35635699 Ry
     estimated scf accuracy    <          3.4E-11 Ry

     iteration # 15     ecut=    25.00 Ry     beta= 0.70
     Davidson diagonalization with overlap
     ethr =  1.00E-13,  avg # of iterations =  2.0

     total cpu time spent up to now is    13914.3 secs

     total energy              =    -441.35635699 Ry
     Harris-Foulkes estimate   =    -441.35635699 Ry
     estimated scf accuracy    <          1.1E-12 Ry

     iteration # 16     ecut=    25.00 Ry     beta= 0.70
     Davidson diagonalization with overlap
     ethr =  1.00E-13,  avg # of iterations =  1.0

     total cpu time spent up to now is    14027.4 secs

     End of self-consistent calculation

     Number of k-points >= 100: set verbosity='high' to print the bands.

     highest occupied level (ev):    19.7302

!    total energy              =    -441.35635699 Ry
     Harris-Foulkes estimate   =    -441.35635699 Ry
     estimated scf accuracy    <          8.3E-14 Ry

     The total energy is the sum of the following terms:

     one-electron contribution =     -31.36744102 Ry
     hartree contribution      =      72.97559883 Ry
     xc contribution           =    -123.32498895 Ry
     ewald contribution        =    -359.63952585 Ry

     convergence has been achieved in  16 iterations

     Forces acting on atoms (cartesian axes, Ry/au):

     atom    1 type  1   force =    -0.01659327   -0.01659327    0.00000000
     atom    2 type  1   force =    -0.00368993   -0.00368993    0.00000000
     atom    3 type  2   force =     0.04827274   -0.05275549    0.00000000
     atom    4 type  2   force =    -0.05275549    0.04827274    0.00000000
     atom    5 type  2   force =     0.06311686    0.06311686    0.00000000
     atom    6 type  2   force =    -0.03835092   -0.03835092    0.00000000

     Total force =     0.147356     Total SCF correction =     0.000000


     Computing stress (Cartesian axis) and pressure

          total   stress  (Ry/bohr**3)                   (kbar)     P=-4894.14
  -0.02708718   0.00000280   0.00000000      -3984.66      0.41      0.00
   0.00000280  -0.02708718   0.00000000          0.41  -3984.66      0.00
   0.00000000   0.00000000  -0.04563465          0.00      0.00  -6713.09


     number of scf cycles    =   6
     number of bfgs steps    =   4

     enthalpy old            =    -441.8188322168 Ry
     enthalpy new            =    -441.3563569857 Ry

     CASE: enthalpy_new > enthalpy_old

     new trust radius        =       0.2132363230 bohr
     new conv_thr            =            1.0E-12 Ry

     new unit-cell volume =    258.51358 a.u.^3 (    38.30776 Ang^3 )
     density =     13.06558 g/cm^3

CELL_PARAMETERS (alat=  9.11000000)
   0.787221277   0.000000000   0.000000000
   0.000000000   0.787221277   0.000000000
   0.000000000   0.000000000   0.551740151

ATOMIC_POSITIONS (crystal)
Sn       0.000131604   0.000131604   0.000000000
Sn       0.499902016   0.499902016   0.500000000
O        0.803627546   0.195162924   0.500000000
O        0.195162924   0.803627546   0.500000000
O        0.303820510   0.303820510   0.000000000
O        0.695355400   0.695355400   0.000000000



     Writing output data file SnO2.save
     Check: negative starting charge=   -0.000712
     NEW-OLD atomic charge density approx. for the potential

     Check: negative/imaginary core charge=   -0.000749    0.000000
     extrapolated charge   41.92056, renormalised to   52.00000

     total cpu time spent up to now is    14071.8 secs

     Self-consistent Calculation

     iteration #  1     ecut=    25.00 Ry     beta= 0.70
     Davidson diagonalization with overlap
     ethr =  1.00E-06,  avg # of iterations =  6.0

     total cpu time spent up to now is    14414.8 secs

     total energy              =    -439.60302322 Ry
     Harris-Foulkes estimate   =    -450.81092197 Ry
     estimated scf accuracy    <       2.62623251 Ry

     iteration #  2     ecut=    25.00 Ry     beta= 0.70
     Davidson diagonalization with overlap
     ethr =  5.05E-03,  avg # of iterations =  3.0

     total cpu time spent up to now is    14599.3 secs

     total energy              =    -442.29268975 Ry
     Harris-Foulkes estimate   =    -443.03943498 Ry
     estimated scf accuracy    <       1.62269716 Ry

     iteration #  3     ecut=    25.00 Ry     beta= 0.70
     Davidson diagonalization with overlap
     ethr =  3.12E-03,  avg # of iterations =  2.0

     total cpu time spent up to now is    14737.6 secs

     total energy              =    -442.36331581 Ry
     Harris-Foulkes estimate   =    -442.44044827 Ry
     estimated scf accuracy    <       0.15837972 Ry

     iteration #  4     ecut=    25.00 Ry     beta= 0.70
     Davidson diagonalization with overlap
     ethr =  3.05E-04,  avg # of iterations =  2.0

     total cpu time spent up to now is    14878.7 secs

     total energy              =    -442.37217092 Ry
     Harris-Foulkes estimate   =    -442.38127321 Ry
     estimated scf accuracy    <       0.01431688 Ry

     iteration #  5     ecut=    25.00 Ry     beta= 0.70
     Davidson diagonalization with overlap
     ethr =  2.75E-05,  avg # of iterations =  2.2

     total cpu time spent up to now is    15047.0 secs

     total energy              =    -442.37644699 Ry
     Harris-Foulkes estimate   =    -442.37729085 Ry
     estimated scf accuracy    <       0.00161031 Ry

     iteration #  6     ecut=    25.00 Ry     beta= 0.70
     Davidson diagonalization with overlap
     ethr =  3.10E-06,  avg # of iterations =  2.0

     total cpu time spent up to now is    15193.1 secs

     total energy              =    -442.37664075 Ry
     Harris-Foulkes estimate   =    -442.37666819 Ry
     estimated scf accuracy    <       0.00005514 Ry

     iteration #  7     ecut=    25.00 Ry     beta= 0.70
     Davidson diagonalization with overlap
     ethr =  1.06E-07,  avg # of iterations =  2.0

     total cpu time spent up to now is    15351.1 secs

     total energy              =    -442.37664779 Ry
     Harris-Foulkes estimate   =    -442.37664917 Ry
     estimated scf accuracy    <       0.00000331 Ry

     iteration #  8     ecut=    25.00 Ry     beta= 0.70
     Davidson diagonalization with overlap
     ethr =  6.36E-09,  avg # of iterations =  2.0

     total cpu time spent up to now is    15494.3 secs

     total energy              =    -442.37664787 Ry
     Harris-Foulkes estimate   =    -442.37664813 Ry
     estimated scf accuracy    <       0.00000045 Ry

     iteration #  9     ecut=    25.00 Ry     beta= 0.70
     Davidson diagonalization with overlap
     ethr =  8.63E-10,  avg # of iterations =  2.0

     total cpu time spent up to now is    15656.4 secs

     total energy              =    -442.37664796 Ry
     Harris-Foulkes estimate   =    -442.37664796 Ry
     estimated scf accuracy    <          1.8E-09 Ry

     iteration # 10     ecut=    25.00 Ry     beta= 0.70
     Davidson diagonalization with overlap
     ethr =  3.52E-12,  avg # of iterations =  3.0

     total cpu time spent up to now is    15837.9 secs

     total energy              =    -442.37664796 Ry
     Harris-Foulkes estimate   =    -442.37664796 Ry
     estimated scf accuracy    <          3.0E-10 Ry

     iteration # 11     ecut=    25.00 Ry     beta= 0.70
     Davidson diagonalization with overlap
     ethr =  5.72E-13,  avg # of iterations =  2.0

     total cpu time spent up to now is    15995.8 secs

     total energy              =    -442.37664796 Ry
     Harris-Foulkes estimate   =    -442.37664796 Ry
     estimated scf accuracy    <          3.0E-12 Ry

     iteration # 12     ecut=    25.00 Ry     beta= 0.70
     Davidson diagonalization with overlap
     ethr =  1.00E-13,  avg # of iterations =  1.0

     total cpu time spent up to now is    16109.0 secs

     End of self-consistent calculation

     Number of k-points >= 100: set verbosity='high' to print the bands.

     highest occupied level (ev):    24.7834

!    total energy              =    -442.37664796 Ry
     Harris-Foulkes estimate   =    -442.37664796 Ry
     estimated scf accuracy    <          3.7E-13 Ry

     The total energy is the sum of the following terms:

     one-electron contribution =      -5.39460680 Ry
     hartree contribution      =      68.98266423 Ry
     xc contribution           =    -125.57441241 Ry
     ewald contribution        =    -380.39029298 Ry

     convergence has been achieved in  12 iterations

     Forces acting on atoms (cartesian axes, Ry/au):

     atom    1 type  1   force =    -0.01225317   -0.01225317    0.00000000
     atom    2 type  1   force =    -0.00128887   -0.00128887    0.00000000
     atom    3 type  2   force =     0.00136688   -0.00548536    0.00000000
     atom    4 type  2   force =    -0.00548536    0.00136688    0.00000000
     atom    5 type  2   force =     0.01230467    0.01230467    0.00000000
     atom    6 type  2   force =     0.00535585    0.00535585    0.00000000

     Total force =     0.026976     Total SCF correction =     0.000001


     Computing stress (Cartesian axis) and pressure

          total   stress  (Ry/bohr**3)                   (kbar)     P= -140.01
   0.00037032   0.00000110  -0.00000000         54.48      0.16     -0.00
   0.00000110   0.00037032   0.00000000          0.16     54.48      0.00
   0.00000000   0.00000000  -0.00359593          0.00      0.00   -528.98


     number of scf cycles    =   7
     number of bfgs steps    =   4

     enthalpy old            =    -441.8188322168 Ry
     enthalpy new            =    -442.3766479636 Ry

     CASE: enthalpy_new < enthalpy_old

     new trust radius        =       0.0496183315 bohr
     new conv_thr            =            1.0E-12 Ry

     new unit-cell volume =    258.12084 a.u.^3 (    38.24956 Ang^3 )
     density =     13.08546 g/cm^3

CELL_PARAMETERS (alat=  9.11000000)
   0.792763075   0.000000000   0.000000000
   0.000000000   0.792763075   0.000000000
   0.000000000   0.000000000   0.543226711

ATOMIC_POSITIONS (crystal)
Sn      -0.001120950  -0.001120950   0.000000000
Sn       0.499804335   0.499804335   0.500000000
O        0.800627615   0.197786306   0.500000000
O        0.197786306   0.800627615   0.500000000
O        0.301874115   0.301874115   0.000000000
O        0.699028578   0.699028578   0.000000000



     Writing output data file SnO2.save
     NEW-OLD atomic charge density approx. for the potential

     Check: negative/imaginary core charge=   -0.000740    0.000000
     extrapolated charge   51.92088, renormalised to   52.00000

     total cpu time spent up to now is    16153.9 secs

     Self-consistent Calculation

     iteration #  1     ecut=    25.00 Ry     beta= 0.70
     Davidson diagonalization with overlap
     ethr =  1.00E-06,  avg # of iterations =  5.0

     total cpu time spent up to now is    16439.8 secs

     total energy              =    -442.38139680 Ry
     Harris-Foulkes estimate   =    -442.45124788 Ry
     estimated scf accuracy    <       0.00156527 Ry

     iteration #  2     ecut=    25.00 Ry     beta= 0.70
     Davidson diagonalization with overlap
     ethr =  3.01E-06,  avg # of iterations =  2.0

     total cpu time spent up to now is    16605.5 secs

     total energy              =    -442.38178829 Ry
     Harris-Foulkes estimate   =    -442.38186234 Ry
     estimated scf accuracy    <       0.00018501 Ry

     iteration #  3     ecut=    25.00 Ry     beta= 0.70
     Davidson diagonalization with overlap
     ethr =  3.56E-07,  avg # of iterations =  2.0

     total cpu time spent up to now is    16757.5 secs

     total energy              =    -442.38182038 Ry
     Harris-Foulkes estimate   =    -442.38181977 Ry
     estimated scf accuracy    <       0.00000978 Ry

     iteration #  4     ecut=    25.00 Ry     beta= 0.70
     Davidson diagonalization with overlap
     ethr =  1.88E-08,  avg # of iterations =  2.0

     total cpu time spent up to now is    16919.0 secs

     total energy              =    -442.38182205 Ry
     Harris-Foulkes estimate   =    -442.38182276 Ry
     estimated scf accuracy    <       0.00000159 Ry

     iteration #  5     ecut=    25.00 Ry     beta= 0.70
     Davidson diagonalization with overlap
     ethr =  3.05E-09,  avg # of iterations =  2.3

     total cpu time spent up to now is    17083.0 secs

     total energy              =    -442.38182245 Ry
     Harris-Foulkes estimate   =    -442.38182255 Ry
     estimated scf accuracy    <       0.00000022 Ry

     iteration #  6     ecut=    25.00 Ry     beta= 0.70
     Davidson diagonalization with overlap
     ethr =  4.28E-10,  avg # of iterations =  2.1

     total cpu time spent up to now is    17241.7 secs

     total energy              =    -442.38182250 Ry
     Harris-Foulkes estimate   =    -442.38182251 Ry
     estimated scf accuracy    <       0.00000001 Ry

     iteration #  7     ecut=    25.00 Ry     beta= 0.70
     Davidson diagonalization with overlap
     ethr =  2.48E-11,  avg # of iterations =  2.0

     total cpu time spent up to now is    17392.9 secs

     total energy              =    -442.38182250 Ry
     Harris-Foulkes estimate   =    -442.38182250 Ry
     estimated scf accuracy    <          1.2E-10 Ry

     iteration #  8     ecut=    25.00 Ry     beta= 0.70
     Davidson diagonalization with overlap
     ethr =  2.38E-13,  avg # of iterations =  2.4

     total cpu time spent up to now is    17563.3 secs

     total energy              =    -442.38182250 Ry
     Harris-Foulkes estimate   =    -442.38182250 Ry
     estimated scf accuracy    <          9.7E-12 Ry

     iteration #  9     ecut=    25.00 Ry     beta= 0.70
     Davidson diagonalization with overlap
     ethr =  1.00E-13,  avg # of iterations =  1.9

     total cpu time spent up to now is    17685.0 secs

     End of self-consistent calculation

     Number of k-points >= 100: set verbosity='high' to print the bands.

     highest occupied level (ev):    24.7262

!    total energy              =    -442.38182250 Ry
     Harris-Foulkes estimate   =    -442.38182250 Ry
     estimated scf accuracy    <          9.8E-13 Ry

     The total energy is the sum of the following terms:

     one-electron contribution =      -6.05619325 Ry
     hartree contribution      =      69.34608835 Ry
     xc contribution           =    -125.62078765 Ry
     ewald contribution        =    -380.05092996 Ry

     convergence has been achieved in   9 iterations

     Forces acting on atoms (cartesian axes, Ry/au):

     atom    1 type  1   force =     0.04487146    0.04487146    0.00000000
     atom    2 type  1   force =     0.00846523    0.00846523    0.00000000
     atom    3 type  2   force =     0.01118280   -0.00588931    0.00000000
     atom    4 type  2   force =    -0.00588931    0.01118280    0.00000000
     atom    5 type  2   force =    -0.02029852   -0.02029852    0.00000000
     atom    6 type  2   force =    -0.03833167   -0.03833167    0.00000000

     Total force =     0.090843     Total SCF correction =     0.000003


     Computing stress (Cartesian axis) and pressure

          total   stress  (Ry/bohr**3)                   (kbar)     P=  -26.37
  -0.00037589   0.00000676   0.00000000        -55.29      0.99      0.00
   0.00000676  -0.00037589   0.00000000          0.99    -55.29      0.00
   0.00000000   0.00000000   0.00021394          0.00      0.00     31.47


     number of scf cycles    =   8
     number of bfgs steps    =   5

     enthalpy old            =    -442.3766479636 Ry
     enthalpy new            =    -442.3818225042 Ry

     CASE: enthalpy_new < enthalpy_old

     new trust radius        =       0.0280768473 bohr
     new conv_thr            =            1.0E-12 Ry

     new unit-cell volume =    257.74150 a.u.^3 (    38.19335 Ang^3 )
     density =     13.10472 g/cm^3

CELL_PARAMETERS (alat=  9.11000000)
   0.792012467   0.000000000   0.000000000
   0.000000000   0.792012467   0.000000000
   0.000000000   0.000000000   0.543457006

ATOMIC_POSITIONS (crystal)
Sn       0.001628030   0.001628030   0.000000000
Sn       0.500340412   0.500340412   0.500000000
O        0.801121279   0.197581209   0.500000000
O        0.197581209   0.801121279   0.500000000
O        0.300468464   0.300468464   0.000000000
O        0.696860606   0.696860606   0.000000000



     Writing output data file SnO2.save
     NEW-OLD atomic charge density approx. for the potential

     Check: negative/imaginary core charge=   -0.000737    0.000000
     extrapolated charge   51.92347, renormalised to   52.00000

     total cpu time spent up to now is    17729.7 secs

     Self-consistent Calculation

     iteration #  1     ecut=    25.00 Ry     beta= 0.70
     Davidson diagonalization with overlap
     ethr =  1.00E-06,  avg # of iterations =  4.2

     total cpu time spent up to now is    18002.0 secs

     total energy              =    -442.38054073 Ry
     Harris-Foulkes estimate   =    -442.44756200 Ry
     estimated scf accuracy    <       0.00065022 Ry

     iteration #  2     ecut=    25.00 Ry     beta= 0.70
     Davidson diagonalization with overlap
     ethr =  1.25E-06,  avg # of iterations =  2.0

     total cpu time spent up to now is    18167.1 secs

     total energy              =    -442.38077881 Ry
     Harris-Foulkes estimate   =    -442.38085194 Ry
     estimated scf accuracy    <       0.00015480 Ry

     iteration #  3     ecut=    25.00 Ry     beta= 0.70
     Davidson diagonalization with overlap
     ethr =  2.98E-07,  avg # of iterations =  2.0

     total cpu time spent up to now is    18314.5 secs

     total energy              =    -442.38080230 Ry
     Harris-Foulkes estimate   =    -442.38080343 Ry
     estimated scf accuracy    <       0.00000864 Ry

     iteration #  4     ecut=    25.00 Ry     beta= 0.70
     Davidson diagonalization with overlap
     ethr =  1.66E-08,  avg # of iterations =  2.0

     total cpu time spent up to now is    18479.7 secs

     total energy              =    -442.38080390 Ry
     Harris-Foulkes estimate   =    -442.38080517 Ry
     estimated scf accuracy    <       0.00000240 Ry

     iteration #  5     ecut=    25.00 Ry     beta= 0.70
     Davidson diagonalization with overlap
     ethr =  4.61E-09,  avg # of iterations =  2.2

     total cpu time spent up to now is    18638.4 secs

     total energy              =    -442.38080450 Ry
     Harris-Foulkes estimate   =    -442.38080457 Ry
     estimated scf accuracy    <       0.00000017 Ry

     iteration #  6     ecut=    25.00 Ry     beta= 0.70
     Davidson diagonalization with overlap
     ethr =  3.24E-10,  avg # of iterations =  2.0

     total cpu time spent up to now is    18796.2 secs

     total energy              =    -442.38080453 Ry
     Harris-Foulkes estimate   =    -442.38080454 Ry
     estimated scf accuracy    <       0.00000001 Ry

     iteration #  7     ecut=    25.00 Ry     beta= 0.70
     Davidson diagonalization with overlap
     ethr =  1.93E-11,  avg # of iterations =  2.0

     total cpu time spent up to now is    18958.7 secs

     total energy              =    -442.38080454 Ry
     Harris-Foulkes estimate   =    -442.38080454 Ry
     estimated scf accuracy    <          2.3E-10 Ry

     iteration #  8     ecut=    25.00 Ry     beta= 0.70
     Davidson diagonalization with overlap
     ethr =  4.37E-13,  avg # of iterations =  2.7

     total cpu time spent up to now is    19124.3 secs

     total energy              =    -442.38080454 Ry
     Harris-Foulkes estimate   =    -442.38080454 Ry
     estimated scf accuracy    <          3.4E-11 Ry

     iteration #  9     ecut=    25.00 Ry     beta= 0.70
     Davidson diagonalization with overlap
     ethr =  1.00E-13,  avg # of iterations =  2.6

     total cpu time spent up to now is    19274.6 secs

     total energy              =    -442.38080454 Ry
     Harris-Foulkes estimate   =    -442.38080454 Ry
     estimated scf accuracy    <          2.9E-12 Ry

     iteration # 10     ecut=    25.00 Ry     beta= 0.70
     Davidson diagonalization with overlap
     ethr =  1.00E-13,  avg # of iterations =  1.0

     total cpu time spent up to now is    19387.8 secs

     End of self-consistent calculation

     Number of k-points >= 100: set verbosity='high' to print the bands.

     highest occupied level (ev):    24.7824

!    total energy              =    -442.38080454 Ry
     Harris-Foulkes estimate   =    -442.38080454 Ry
     estimated scf accuracy    <          1.0E-13 Ry

     The total energy is the sum of the following terms:

     one-electron contribution =      -5.79324156 Ry
     hartree contribution      =      69.29844398 Ry
     xc contribution           =    -125.63803012 Ry
     ewald contribution        =    -380.24797684 Ry

     convergence has been achieved in  10 iterations

     Forces acting on atoms (cartesian axes, Ry/au):

     atom    1 type  1   force =    -0.07589821   -0.07589821    0.00000000
     atom    2 type  1   force =    -0.01492291   -0.01492291    0.00000000
     atom    3 type  2   force =    -0.00431811   -0.01299745    0.00000000
     atom    4 type  2   force =    -0.01299745   -0.00431811    0.00000000
     atom    5 type  2   force =     0.05915647    0.05915647    0.00000000
     atom    6 type  2   force =     0.04898022    0.04898022    0.00000000

     Total force =     0.155366     Total SCF correction =     0.000001


     Computing stress (Cartesian axis) and pressure

          total   stress  (Ry/bohr**3)                   (kbar)     P=   19.61
  -0.00003793   0.00002168   0.00000000         -5.58      3.19      0.00
   0.00002168  -0.00003793   0.00000000          3.19     -5.58      0.00
   0.00000000   0.00000000   0.00047571          0.00      0.00     69.98


     number of scf cycles    =   9
     number of bfgs steps    =   6

     enthalpy old            =    -442.3818225042 Ry
     enthalpy new            =    -442.3808045358 Ry

     CASE: enthalpy_new > enthalpy_old

     new trust radius        =       0.0110395341 bohr
     new conv_thr            =            1.0E-12 Ry

     new unit-cell volume =    257.97154 a.u.^3 (    38.22744 Ang^3 )
     density =     13.09303 g/cm^3

CELL_PARAMETERS (alat=  9.11000000)
   0.792467664   0.000000000   0.000000000
   0.000000000   0.792467664   0.000000000
   0.000000000   0.000000000   0.543317347

ATOMIC_POSITIONS (crystal)
Sn      -0.000039054  -0.000039054   0.000000000
Sn       0.500015315   0.500015315   0.500000000
O        0.800821903   0.197705587   0.500000000
O        0.197705587   0.800821903   0.500000000
O        0.301320904   0.301320904   0.000000000
O        0.698175346   0.698175346   0.000000000



     Writing output data file SnO2.save
     NEW-OLD atomic charge density approx. for the potential

     Check: negative/imaginary core charge=   -0.000739    0.000000
     extrapolated charge   52.04637, renormalised to   52.00000

     total cpu time spent up to now is    19432.3 secs

     Self-consistent Calculation

     iteration #  1     ecut=    25.00 Ry     beta= 0.70
     Davidson diagonalization with overlap
     ethr =  1.00E-06,  avg # of iterations =  4.0

     total cpu time spent up to now is    19689.5 secs

     total energy              =    -442.38246196 Ry
     Harris-Foulkes estimate   =    -442.34211130 Ry
     estimated scf accuracy    <       0.00024245 Ry

     iteration #  2     ecut=    25.00 Ry     beta= 0.70
     Davidson diagonalization with overlap
     ethr =  4.66E-07,  avg # of iterations =  2.0

     total cpu time spent up to now is    19854.4 secs

     total energy              =    -442.38255133 Ry
     Harris-Foulkes estimate   =    -442.38257885 Ry
     estimated scf accuracy    <       0.00005790 Ry

     iteration #  3     ecut=    25.00 Ry     beta= 0.70
     Davidson diagonalization with overlap
     ethr =  1.11E-07,  avg # of iterations =  2.0

     total cpu time spent up to now is    20002.0 secs

     total energy              =    -442.38256007 Ry
     Harris-Foulkes estimate   =    -442.38256062 Ry
     estimated scf accuracy    <       0.00000338 Ry

     iteration #  4     ecut=    25.00 Ry     beta= 0.70
     Davidson diagonalization with overlap
     ethr =  6.49E-09,  avg # of iterations =  2.0

     total cpu time spent up to now is    20167.9 secs

     total energy              =    -442.38256071 Ry
     Harris-Foulkes estimate   =    -442.38256124 Ry
     estimated scf accuracy    <       0.00000100 Ry

     iteration #  5     ecut=    25.00 Ry     beta= 0.70
     Davidson diagonalization with overlap
     ethr =  1.91E-09,  avg # of iterations =  2.2

     total cpu time spent up to now is    20326.2 secs

     total energy              =    -442.38256096 Ry
     Harris-Foulkes estimate   =    -442.38256098 Ry
     estimated scf accuracy    <       0.00000006 Ry

     iteration #  6     ecut=    25.00 Ry     beta= 0.70
     Davidson diagonalization with overlap
     ethr =  1.15E-10,  avg # of iterations =  2.0

     total cpu time spent up to now is    20484.6 secs

     total energy              =    -442.38256097 Ry
     Harris-Foulkes estimate   =    -442.38256097 Ry
     estimated scf accuracy    <          3.7E-09 Ry

     iteration #  7     ecut=    25.00 Ry     beta= 0.70
     Davidson diagonalization with overlap
     ethr =  7.05E-12,  avg # of iterations =  2.0

     total cpu time spent up to now is    20647.2 secs

     total energy              =    -442.38256097 Ry
     Harris-Foulkes estimate   =    -442.38256097 Ry
     estimated scf accuracy    <          1.0E-10 Ry

     iteration #  8     ecut=    25.00 Ry     beta= 0.70
     Davidson diagonalization with overlap
     ethr =  1.93E-13,  avg # of iterations =  2.9

     total cpu time spent up to now is    20810.9 secs

     total energy              =    -442.38256097 Ry
     Harris-Foulkes estimate   =    -442.38256097 Ry
     estimated scf accuracy    <          1.6E-11 Ry

     iteration #  9     ecut=    25.00 Ry     beta= 0.70
     Davidson diagonalization with overlap
     ethr =  1.00E-13,  avg # of iterations =  2.0

     total cpu time spent up to now is    20942.1 secs

     End of self-consistent calculation

     Number of k-points >= 100: set verbosity='high' to print the bands.

     highest occupied level (ev):    24.7485

!    total energy              =    -442.38256097 Ry
     Harris-Foulkes estimate   =    -442.38256097 Ry
     estimated scf accuracy    <          9.4E-13 Ry

     The total energy is the sum of the following terms:

     one-electron contribution =      -5.94240597 Ry
     hartree contribution      =      69.32240501 Ry
     xc contribution           =    -125.62723369 Ry
     ewald contribution        =    -380.13532633 Ry

     convergence has been achieved in   9 iterations

     Forces acting on atoms (cartesian axes, Ry/au):

     atom    1 type  1   force =    -0.00277759   -0.00277759    0.00000000
     atom    2 type  1   force =    -0.00073224   -0.00073224    0.00000000
     atom    3 type  2   force =     0.00505511   -0.00863825    0.00000000
     atom    4 type  2   force =    -0.00863825    0.00505511    0.00000000
     atom    5 type  2   force =     0.00998674    0.00998674    0.00000000
     atom    6 type  2   force =    -0.00289377   -0.00289377    0.00000000

     Total force =     0.020810     Total SCF correction =     0.000002


     Computing stress (Cartesian axis) and pressure

          total   stress  (Ry/bohr**3)                   (kbar)     P=   -9.60
  -0.00025558  -0.00000187   0.00000000        -37.60     -0.27      0.00
  -0.00000187  -0.00025558   0.00000000         -0.27    -37.60      0.00
   0.00000000   0.00000000   0.00031539          0.00      0.00     46.40


     number of scf cycles    =  10
     number of bfgs steps    =   6

     enthalpy old            =    -442.3818225042 Ry
     enthalpy new            =    -442.3825609704 Ry

     CASE: enthalpy_new < enthalpy_old

     new trust radius        =       0.0117271861 bohr
     new conv_thr            =            1.0E-12 Ry

     new unit-cell volume =    257.74540 a.u.^3 (    38.19393 Ang^3 )
     density =     13.10452 g/cm^3

CELL_PARAMETERS (alat=  9.11000000)
   0.790682971   0.000000000   0.000000000
   0.000000000   0.790682971   0.000000000
   0.000000000   0.000000000   0.545294385

ATOMIC_POSITIONS (crystal)
Sn      -0.000042817  -0.000042817   0.000000000
Sn       0.499989120   0.499989120   0.500000000
O        0.801707458   0.196539011   0.500000000
O        0.196539011   0.801707458   0.500000000
O        0.302469530   0.302469530   0.000000000
O        0.697337698   0.697337698   0.000000000



     Writing output data file SnO2.save
     NEW-OLD atomic charge density approx. for the potential

     Check: negative/imaginary core charge=   -0.000739    0.000000
     extrapolated charge   51.95438, renormalised to   52.00000

     total cpu time spent up to now is    20986.3 secs

     Self-consistent Calculation

     iteration #  1     ecut=    25.00 Ry     beta= 0.70
     Davidson diagonalization with overlap
     ethr =  1.00E-06,  avg # of iterations =  4.0

     total cpu time spent up to now is    21230.5 secs

     total energy              =    -442.38276992 Ry
     Harris-Foulkes estimate   =    -442.42252421 Ry
     estimated scf accuracy    <       0.00021168 Ry

     iteration #  2     ecut=    25.00 Ry     beta= 0.70
     Davidson diagonalization with overlap
     ethr =  4.07E-07,  avg # of iterations =  2.0

     total cpu time spent up to now is    21395.4 secs

     total energy              =    -442.38286316 Ry
     Harris-Foulkes estimate   =    -442.38288746 Ry
     estimated scf accuracy    <       0.00004901 Ry

     iteration #  3     ecut=    25.00 Ry     beta= 0.70
     Davidson diagonalization with overlap
     ethr =  9.43E-08,  avg # of iterations =  2.0

     total cpu time spent up to now is    21539.4 secs

     total energy              =    -442.38286915 Ry
     Harris-Foulkes estimate   =    -442.38286953 Ry
     estimated scf accuracy    <       0.00000220 Ry

     iteration #  4     ecut=    25.00 Ry     beta= 0.70
     Davidson diagonalization with overlap
     ethr =  4.24E-09,  avg # of iterations =  2.0

     total cpu time spent up to now is    21701.2 secs

     total energy              =    -442.38286957 Ry
     Harris-Foulkes estimate   =    -442.38286966 Ry
     estimated scf accuracy    <       0.00000018 Ry

     iteration #  5     ecut=    25.00 Ry     beta= 0.70
     Davidson diagonalization with overlap
     ethr =  3.48E-10,  avg # of iterations =  2.0

     total cpu time spent up to now is    21863.6 secs

     total energy              =    -442.38286961 Ry
     Harris-Foulkes estimate   =    -442.38286962 Ry
     estimated scf accuracy    <       0.00000003 Ry

     iteration #  6     ecut=    25.00 Ry     beta= 0.70
     Davidson diagonalization with overlap
     ethr =  5.86E-11,  avg # of iterations =  2.0

     total cpu time spent up to now is    22024.4 secs

     total energy              =    -442.38286962 Ry
     Harris-Foulkes estimate   =    -442.38286962 Ry
     estimated scf accuracy    <          3.3E-09 Ry

     iteration #  7     ecut=    25.00 Ry     beta= 0.70
     Davidson diagonalization with overlap
     ethr =  6.33E-12,  avg # of iterations =  2.0

     total cpu time spent up to now is    22175.9 secs

     total energy              =    -442.38286962 Ry
     Harris-Foulkes estimate   =    -442.38286962 Ry
     estimated scf accuracy    <          5.6E-11 Ry

     iteration #  8     ecut=    25.00 Ry     beta= 0.70
     Davidson diagonalization with overlap
     ethr =  1.07E-13,  avg # of iterations =  2.0

     total cpu time spent up to now is    22341.5 secs

     total energy              =    -442.38286962 Ry
     Harris-Foulkes estimate   =    -442.38286962 Ry
     estimated scf accuracy    <          2.5E-12 Ry

     iteration #  9     ecut=    25.00 Ry     beta= 0.70
     Davidson diagonalization with overlap
     ethr =  1.00E-13,  avg # of iterations =  1.0

     total cpu time spent up to now is    22454.6 secs

     End of self-consistent calculation

     Number of k-points >= 100: set verbosity='high' to print the bands.

     highest occupied level (ev):    24.8076

!    total energy              =    -442.38286962 Ry
     Harris-Foulkes estimate   =    -442.38286962 Ry
     estimated scf accuracy    <          1.4E-13 Ry

     The total energy is the sum of the following terms:

     one-electron contribution =      -5.60627934 Ry
     hartree contribution      =      69.21678890 Ry
     xc contribution           =    -125.63222629 Ry
     ewald contribution        =    -380.36115289 Ry

     convergence has been achieved in   9 iterations

     Forces acting on atoms (cartesian axes, Ry/au):

     atom    1 type  1   force =     0.00226327    0.00226327    0.00000000
     atom    2 type  1   force =     0.00213334    0.00213334    0.00000000
     atom    3 type  2   force =    -0.00284146   -0.00033679    0.00000000
     atom    4 type  2   force =    -0.00033679   -0.00284146    0.00000000
     atom    5 type  2   force =    -0.00133039   -0.00133039    0.00000000
     atom    6 type  2   force =     0.00011204    0.00011204    0.00000000

     Total force =     0.006268     Total SCF correction =     0.000001


     Computing stress (Cartesian axis) and pressure

          total   stress  (Ry/bohr**3)                   (kbar)     P=    4.40
   0.00013709   0.00000359   0.00000000         20.17      0.53      0.00
   0.00000359   0.00013709   0.00000000          0.53     20.17      0.00
   0.00000000   0.00000000  -0.00018446          0.00      0.00    -27.14


     number of scf cycles    =  11
     number of bfgs steps    =   7

     enthalpy old            =    -442.3825609704 Ry
     enthalpy new            =    -442.3828696160 Ry

     CASE: enthalpy_new < enthalpy_old

     new trust radius        =       0.0033851314 bohr
     new conv_thr            =            1.0E-12 Ry

     new unit-cell volume =    257.81022 a.u.^3 (    38.20353 Ang^3 )
     density =     13.10122 g/cm^3

CELL_PARAMETERS (alat=  9.11000000)
   0.791199555   0.000000000   0.000000000
   0.000000000   0.791199555   0.000000000
   0.000000000   0.000000000   0.544719500

ATOMIC_POSITIONS (crystal)
Sn       0.000033485   0.000033485   0.000000000
Sn       0.500113438   0.500113438   0.500000000
O        0.801338112   0.196695192   0.500000000
O        0.196695192   0.801338112   0.500000000
O        0.302245105   0.302245105   0.000000000
O        0.697574669   0.697574669   0.000000000



     Writing output data file SnO2.save
     NEW-OLD atomic charge density approx. for the potential

     Check: negative/imaginary core charge=   -0.000739    0.000000
     extrapolated charge   52.01307, renormalised to   52.00000

     total cpu time spent up to now is    22498.6 secs

     Self-consistent Calculation

     iteration #  1     ecut=    25.00 Ry     beta= 0.70
     Davidson diagonalization with overlap
     ethr =  1.00E-06,  avg # of iterations =  3.0

     Threshold (ethr) on eigenvalues was too large:
     Diagonalizing with lowered threshold

     Davidson diagonalization with overlap
     ethr =  2.87E-08,  avg # of iterations =  1.3

     total cpu time spent up to now is    22841.1 secs

     total energy              =    -442.38293014 Ry
     Harris-Foulkes estimate   =    -442.37156652 Ry
     estimated scf accuracy    <       0.00001486 Ry

     iteration #  2     ecut=    25.00 Ry     beta= 0.70
     Davidson diagonalization with overlap
     ethr =  2.86E-08,  avg # of iterations =  2.0

     total cpu time spent up to now is    23006.4 secs

     total energy              =    -442.38293721 Ry
     Harris-Foulkes estimate   =    -442.38293918 Ry
     estimated scf accuracy    <       0.00000400 Ry

     iteration #  3     ecut=    25.00 Ry     beta= 0.70
     Davidson diagonalization with overlap
     ethr =  7.70E-09,  avg # of iterations =  2.0

     total cpu time spent up to now is    23149.4 secs

     total energy              =    -442.38293766 Ry
     Harris-Foulkes estimate   =    -442.38293771 Ry
     estimated scf accuracy    <       0.00000020 Ry

     iteration #  4     ecut=    25.00 Ry     beta= 0.70
     Davidson diagonalization with overlap
     ethr =  3.93E-10,  avg # of iterations =  2.0

     total cpu time spent up to now is    23311.4 secs

     total energy              =    -442.38293770 Ry
     Harris-Foulkes estimate   =    -442.38293771 Ry
     estimated scf accuracy    <       0.00000001 Ry

     iteration #  5     ecut=    25.00 Ry     beta= 0.70
     Davidson diagonalization with overlap
     ethr =  2.62E-11,  avg # of iterations =  2.0

     total cpu time spent up to now is    23472.5 secs

     total energy              =    -442.38293770 Ry
     Harris-Foulkes estimate   =    -442.38293770 Ry
     estimated scf accuracy    <          1.8E-09 Ry

     iteration #  6     ecut=    25.00 Ry     beta= 0.70
     Davidson diagonalization with overlap
     ethr =  3.50E-12,  avg # of iterations =  2.0

     total cpu time spent up to now is    23637.7 secs

     total energy              =    -442.38293770 Ry
     Harris-Foulkes estimate   =    -442.38293770 Ry
     estimated scf accuracy    <          3.0E-10 Ry

     iteration #  7     ecut=    25.00 Ry     beta= 0.70
     Davidson diagonalization with overlap
     ethr =  5.79E-13,  avg # of iterations =  2.1

     total cpu time spent up to now is    23793.7 secs

     total energy              =    -442.38293770 Ry
     Harris-Foulkes estimate   =    -442.38293770 Ry
     estimated scf accuracy    <          6.7E-12 Ry

     iteration #  8     ecut=    25.00 Ry     beta= 0.70
     Davidson diagonalization with overlap
     ethr =  1.00E-13,  avg # of iterations =  1.2

     total cpu time spent up to now is    23908.5 secs

     End of self-consistent calculation

     Number of k-points >= 100: set verbosity='high' to print the bands.

     highest occupied level (ev):    24.7909

!    total energy              =    -442.38293770 Ry
     Harris-Foulkes estimate   =    -442.38293770 Ry
     estimated scf accuracy    <          2.1E-13 Ry

     The total energy is the sum of the following terms:

     one-electron contribution =      -5.71053992 Ry
     hartree contribution      =      69.25119639 Ry
     xc contribution           =    -125.63098885 Ry
     ewald contribution        =    -380.29260532 Ry

     convergence has been achieved in   8 iterations

     Forces acting on atoms (cartesian axes, Ry/au):

     atom    1 type  1   force =     0.00125471    0.00125471    0.00000000
     atom    2 type  1   force =     0.00138764    0.00138764    0.00000000
     atom    3 type  2   force =    -0.00180549   -0.00253625    0.00000000
     atom    4 type  2   force =    -0.00253625   -0.00180549    0.00000000
     atom    5 type  2   force =     0.00083620    0.00083620    0.00000000
     atom    6 type  2   force =     0.00086318    0.00086318    0.00000000

     Total force =     0.005410     Total SCF correction =     0.000002


     Computing stress (Cartesian axis) and pressure

          total   stress  (Ry/bohr**3)                   (kbar)     P=    0.62
   0.00001131  -0.00000130  -0.00000000          1.66     -0.19     -0.00
  -0.00000130   0.00001131   0.00000000         -0.19      1.66      0.00
   0.00000000   0.00000000  -0.00000998          0.00      0.00     -1.47


     number of scf cycles    =  12
     number of bfgs steps    =   8

     enthalpy old            =    -442.3828696160 Ry
     enthalpy new            =    -442.3829377036 Ry

     CASE: enthalpy_new < enthalpy_old

     new trust radius        =       0.0024056782 bohr
     new conv_thr            =            1.0E-12 Ry

     new unit-cell volume =    257.82390 a.u.^3 (    38.20556 Ang^3 )
     density =     13.10053 g/cm^3

CELL_PARAMETERS (alat=  9.11000000)
   0.791295663   0.000000000   0.000000000
   0.000000000   0.791295663   0.000000000
   0.000000000   0.000000000   0.544616088

ATOMIC_POSITIONS (crystal)
Sn       0.000176712   0.000176712   0.000000000
Sn       0.500273580   0.500273580   0.500000000
O        0.801085605   0.196476937   0.500000000
O        0.196476937   0.801085605   0.500000000
O        0.302279509   0.302279509   0.000000000
O        0.697707658   0.697707658   0.000000000



     Writing output data file SnO2.save
     NEW-OLD atomic charge density approx. for the potential

     Check: negative/imaginary core charge=   -0.000739    0.000000
     extrapolated charge   52.00276, renormalised to   52.00000

     total cpu time spent up to now is    23952.6 secs

     Self-consistent Calculation

     iteration #  1     ecut=    25.00 Ry     beta= 0.70
     Davidson diagonalization with overlap
     ethr =  1.00E-06,  avg # of iterations =  3.0

     Threshold (ethr) on eigenvalues was too large:
     Diagonalizing with lowered threshold

     Davidson diagonalization with overlap
     ethr =  1.09E-08,  avg # of iterations =  1.3

     total cpu time spent up to now is    24285.5 secs

     total energy              =    -442.38296209 Ry
     Harris-Foulkes estimate   =    -442.38056286 Ry
     estimated scf accuracy    <       0.00000567 Ry

     iteration #  2     ecut=    25.00 Ry     beta= 0.70
     Davidson diagonalization with overlap
     ethr =  1.09E-08,  avg # of iterations =  2.0

     total cpu time spent up to now is    24449.4 secs

     total energy              =    -442.38296331 Ry
     Harris-Foulkes estimate   =    -442.38296368 Ry
     estimated scf accuracy    <       0.00000082 Ry

     iteration #  3     ecut=    25.00 Ry     beta= 0.70
     Davidson diagonalization with overlap
     ethr =  1.59E-09,  avg # of iterations =  2.0

     total cpu time spent up to now is    24611.6 secs

     total energy              =    -442.38296350 Ry
     Harris-Foulkes estimate   =    -442.38296351 Ry
     estimated scf accuracy    <       0.00000007 Ry

     iteration #  4     ecut=    25.00 Ry     beta= 0.70
     Davidson diagonalization with overlap
     ethr =  1.35E-10,  avg # of iterations =  2.0

     total cpu time spent up to now is    24772.4 secs

     total energy              =    -442.38296351 Ry
     Harris-Foulkes estimate   =    -442.38296352 Ry
     estimated scf accuracy    <       0.00000001 Ry

     iteration #  5     ecut=    25.00 Ry     beta= 0.70
     Davidson diagonalization with overlap
     ethr =  2.40E-11,  avg # of iterations =  2.1

     total cpu time spent up to now is    24929.3 secs

     total energy              =    -442.38296352 Ry
     Harris-Foulkes estimate   =    -442.38296352 Ry
     estimated scf accuracy    <          5.1E-10 Ry

     iteration #  6     ecut=    25.00 Ry     beta= 0.70
     Davidson diagonalization with overlap
