
     Program PWSCF v.6.2.2 starts on 21Apr2018 at 12:19:12 

     This program is part of the open-source Quantum ESPRESSO suite
     for quantum simulation of materials; please cite
         "P. Giannozzi et al., J. Phys.:Condens. Matter 21 395502 (2009);
         "P. Giannozzi et al., J. Phys.:Condens. Matter 29 465901 (2017);
          URL http://www.quantum-espresso.org", 
     in publications or presentations arising from this work. More details at
     http://www.quantum-espresso.org/quote

     Parallel version (MPI), running on     2 processors

     MPI processes distributed on     1 nodes
     R & G space division:  proc/nbgrp/npool/nimage =       2
     Reading input from Conv_acell-kp.in

     Current dimensions of program PWSCF are:
     Max number of different atomic species (ntypx) = 10
     Max number of k-points (npk) =  40000
     Max angular momentum in pseudopotentials (lmaxx) =  3

     Subspace diagonalization in iterative solution of the eigenvalue problem:
     a serial algorithm will be used

 
     Parallelization info
     --------------------
     sticks:   dense  smooth     PW     G-vecs:    dense   smooth      PW
     Min         332     332    110                 4313     4313     791
     Max         333     333    111                 4314     4314     792
     Sum         665     665    221                 8627     8627    1583
 


     bravais-lattice index     =            6
     lattice parameter (alat)  =       9.1100  a.u.
     unit-cell volume          =     506.5589 (a.u.)^3
     number of atoms/cell      =            6
     number of atomic types    =            2
     number of electrons       =        52.00
     number of Kohn-Sham states=           26
     kinetic-energy cutoff     =      25.0000  Ry
     charge density cutoff     =     100.0000  Ry
     convergence threshold     =      1.0E-12
     mixing beta               =       0.7000
     number of iterations used =            8  plain     mixing
     Exchange-correlation      = PBE ( 1  4  3  4 0 0)
     nstep                     =           50


     celldm(1)=   9.110000  celldm(2)=   0.000000  celldm(3)=   0.670000
     celldm(4)=   0.000000  celldm(5)=   0.000000  celldm(6)=   0.000000

     crystal axes: (cart. coord. in units of alat)
               a(1) = (   1.000000   0.000000   0.000000 )  
               a(2) = (   0.000000   1.000000   0.000000 )  
               a(3) = (   0.000000   0.000000   0.670000 )  

     reciprocal axes: (cart. coord. in units 2 pi/alat)
               b(1) = (  1.000000  0.000000  0.000000 )  
               b(2) = (  0.000000  1.000000  0.000000 )  
               b(3) = (  0.000000  0.000000  1.492537 )  


     PseudoPot. # 1 for Sn read from file:
     ../../Pseudo_potentials/Sn_PBE.upf
     MD5 check sum: 78e6386ae56e929f0568ae8bf606a80c
     Pseudo is Norm-conserving + core correction, Zval = 14.0
     Generated using ONCVPSP code by D. R. Hamann
     Using radial grid of 1628 points,  6 beta functions with: 
                l(1) =   0
                l(2) =   0
                l(3) =   1
                l(4) =   1
                l(5) =   2
                l(6) =   2

     PseudoPot. # 2 for O  read from file:
     ../../Pseudo_potentials/O_PBE.upf
     MD5 check sum: 3e3f909f7470e8921608ab6b1f57bbae
     Pseudo is Norm-conserving + core correction, Zval =  6.0
     Generated using ONCVPSP code by D. R. Hamann
     Using radial grid of  936 points,  5 beta functions with: 
                l(1) =   0
                l(2) =   0
                l(3) =   1
                l(4) =   1
                l(5) =   2

     atomic species   valence    mass     pseudopotential
        Sn            14.00   118.71000     Sn( 1.00)
        O              6.00    15.99900     O ( 1.00)

      4 Sym. Ops. (no inversion) found



   Cartesian axes

     site n.     atom                  positions (alat units)
         1           Sn  tau(   1) = (   0.0000000   0.0000000   0.0000000  )
         2           Sn  tau(   2) = (   0.5000000   0.5000000   0.3350000  )
         3           O   tau(   3) = (   0.8060000   0.1930000   0.3350000  )
         4           O   tau(   4) = (   0.1930000   0.8060000   0.3350000  )
         5           O   tau(   5) = (   0.3060000   0.3060000   0.0000000  )
         6           O   tau(   6) = (   0.6930000   0.6930000   0.0000000  )

     number of k points=     6
                       cart. coord. in units 2pi/alat
        k(    1) = (   0.0000000   0.0000000   0.0000000), wk =   0.2500000
        k(    2) = (   0.0000000   0.0000000  -0.7462687), wk =   0.2500000
        k(    3) = (   0.0000000  -0.5000000   0.0000000), wk =   0.5000000
        k(    4) = (   0.0000000  -0.5000000  -0.7462687), wk =   0.5000000
        k(    5) = (  -0.5000000  -0.5000000   0.0000000), wk =   0.2500000
        k(    6) = (  -0.5000000  -0.5000000  -0.7462687), wk =   0.2500000

     Dense  grid:     8627 G-vectors     FFT dimensions: (  30,  30,  20)

     Estimated max dynamical RAM per process >      11.63 MB

     Estimated total dynamical RAM >      23.25 MB

     Check: negative/imaginary core charge=   -0.002394    0.000000

     Initial potential from superposition of free atoms
     Check: negative starting charge=   -0.009566

     starting charge   51.99690, renormalised to   52.00000

     negative rho (up, down):  9.566E-03 0.000E+00
     Starting wfc are   34 randomized atomic wfcs

     total cpu time spent up to now is        1.9 secs

     Self-consistent Calculation

     iteration #  1     ecut=    25.00 Ry     beta= 0.70
     Davidson diagonalization with overlap
     ethr =  1.00E-02,  avg # of iterations =  2.0

     negative rho (up, down):  2.853E-03 0.000E+00

     total cpu time spent up to now is        2.2 secs

     total energy              =    -429.85596180 Ry
     Harris-Foulkes estimate   =    -432.84274006 Ry
     estimated scf accuracy    <       4.10997425 Ry

     iteration #  2     ecut=    25.00 Ry     beta= 0.70
     Davidson diagonalization with overlap
     ethr =  7.90E-03,  avg # of iterations =  2.0

     negative rho (up, down):  9.023E-04 0.000E+00

     total cpu time spent up to now is        2.5 secs

     total energy              =    -430.63475610 Ry
     Harris-Foulkes estimate   =    -430.78442832 Ry
     estimated scf accuracy    <       0.26092128 Ry

     iteration #  3     ecut=    25.00 Ry     beta= 0.70
     Davidson diagonalization with overlap
     ethr =  5.02E-04,  avg # of iterations =  3.3

     negative rho (up, down):  1.487E-04 0.000E+00

     total cpu time spent up to now is        2.8 secs

     total energy              =    -430.69962930 Ry
     Harris-Foulkes estimate   =    -430.71006560 Ry
     estimated scf accuracy    <       0.02518779 Ry

     iteration #  4     ecut=    25.00 Ry     beta= 0.70
     Davidson diagonalization with overlap
     ethr =  4.84E-05,  avg # of iterations =  2.8

     total cpu time spent up to now is        3.0 secs

     total energy              =    -430.70321860 Ry
     Harris-Foulkes estimate   =    -430.70463448 Ry
     estimated scf accuracy    <       0.00279893 Ry

     iteration #  5     ecut=    25.00 Ry     beta= 0.70
     Davidson diagonalization with overlap
     ethr =  5.38E-06,  avg # of iterations =  2.7

     total cpu time spent up to now is        3.3 secs

     total energy              =    -430.70384955 Ry
     Harris-Foulkes estimate   =    -430.70395829 Ry
     estimated scf accuracy    <       0.00021295 Ry

     iteration #  6     ecut=    25.00 Ry     beta= 0.70
     Davidson diagonalization with overlap
     ethr =  4.10E-07,  avg # of iterations =  2.8

     total cpu time spent up to now is        3.6 secs

     total energy              =    -430.70389798 Ry
     Harris-Foulkes estimate   =    -430.70390576 Ry
     estimated scf accuracy    <       0.00001539 Ry

     iteration #  7     ecut=    25.00 Ry     beta= 0.70
     Davidson diagonalization with overlap
     ethr =  2.96E-08,  avg # of iterations =  3.7

     total cpu time spent up to now is        3.9 secs

     total energy              =    -430.70390096 Ry
     Harris-Foulkes estimate   =    -430.70390341 Ry
     estimated scf accuracy    <       0.00000568 Ry

     iteration #  8     ecut=    25.00 Ry     beta= 0.70
     Davidson diagonalization with overlap
     ethr =  1.09E-08,  avg # of iterations =  3.2

     total cpu time spent up to now is        4.2 secs

     total energy              =    -430.70390210 Ry
     Harris-Foulkes estimate   =    -430.70390214 Ry
     estimated scf accuracy    <       0.00000010 Ry

     iteration #  9     ecut=    25.00 Ry     beta= 0.70
     Davidson diagonalization with overlap
     ethr =  1.98E-10,  avg # of iterations =  3.5

     total cpu time spent up to now is        4.5 secs

     total energy              =    -430.70390212 Ry
     Harris-Foulkes estimate   =    -430.70390214 Ry
     estimated scf accuracy    <       0.00000004 Ry

     iteration # 10     ecut=    25.00 Ry     beta= 0.70
     Davidson diagonalization with overlap
     ethr =  8.36E-11,  avg # of iterations =  3.5

     total cpu time spent up to now is        4.8 secs

     total energy              =    -430.70390213 Ry
     Harris-Foulkes estimate   =    -430.70390214 Ry
     estimated scf accuracy    <       0.00000002 Ry

     iteration # 11     ecut=    25.00 Ry     beta= 0.70
     Davidson diagonalization with overlap
     ethr =  4.23E-11,  avg # of iterations =  3.2

     total cpu time spent up to now is        5.0 secs

     total energy              =    -430.70390213 Ry
     Harris-Foulkes estimate   =    -430.70390213 Ry
     estimated scf accuracy    <          5.2E-10 Ry

     iteration # 12     ecut=    25.00 Ry     beta= 0.70
     Davidson diagonalization with overlap
     ethr =  1.00E-12,  avg # of iterations =  2.8

     total cpu time spent up to now is        5.3 secs

     total energy              =    -430.70390213 Ry
     Harris-Foulkes estimate   =    -430.70390213 Ry
     estimated scf accuracy    <          1.1E-11 Ry

     iteration # 13     ecut=    25.00 Ry     beta= 0.70
     Davidson diagonalization with overlap
     ethr =  1.00E-13,  avg # of iterations =  2.5

     total cpu time spent up to now is        5.5 secs

     End of self-consistent calculation

          k = 0.0000 0.0000 0.0000 (  1065 PWs)   bands (ev):

   -12.0148 -11.4502 -10.0185 -10.0185 -10.0049  -9.9239  -9.8504  -9.8473
    -9.8331  -9.5438  -9.0141  -8.8904  -8.8904  -6.9903   1.0584   5.6555
     5.6555   5.9768   6.9657   7.8676   8.0762   9.1278   9.2180   9.2180
     9.3276   9.3276

          k = 0.0000 0.0000-0.7463 (  1058 PWs)   bands (ev):

   -11.3759 -11.3757 -10.8785 -10.8784  -9.4052  -9.4052  -9.2113  -9.2112
    -9.1508  -9.1507  -8.6272  -8.6271  -7.4476  -7.4476   2.0082   2.0083
     5.5653   5.5653   6.0310   6.0310   7.3692   7.3692   8.3700   8.3700
     8.8317   8.8317

          k = 0.0000-0.5000 0.0000 (  1078 PWs)   bands (ev):

   -11.4795 -11.4771 -10.6685 -10.6680 -10.2232 -10.2228  -9.8802  -9.8800
    -9.8649  -9.8643  -9.5190  -9.5179  -7.9640  -7.9598   2.6600   2.6699
     6.6043   6.6165   6.7172   6.7196   8.0104   8.0136   9.2246   9.2284
     9.3374   9.3404

          k = 0.0000-0.5000-0.7463 (  1096 PWs)   bands (ev):

   -12.0458 -12.0457 -10.5109 -10.5107 -10.1645 -10.1638 -10.1596 -10.1592
    -9.8234  -9.8234  -9.6726  -9.6726  -7.3987  -7.3987   2.2640   2.2641
     3.9928   3.9929   5.4194   5.4195   8.3015   8.3015   8.7390   8.7391
     9.6661   9.6662

          k =-0.5000-0.5000 0.0000 (  1084 PWs)   bands (ev):

   -11.7188 -11.7187 -10.5620 -10.5619  -9.9909  -9.9909  -9.9365  -9.9329
    -9.9010  -9.8973  -9.8328  -9.8326  -8.1883  -8.1883   3.6151   3.6152
     5.8487   5.8488   6.7629   6.7630   7.7188   7.7188   9.0849   9.0850
     9.1298   9.1299

          k =-0.5000-0.5000-0.7463 (  1072 PWs)   bands (ev):

   -11.5613 -11.5611 -11.0288 -11.0288  -9.8349  -9.8348  -9.5610  -9.5610
    -9.4739  -9.4738  -8.8664  -8.8663  -7.5081  -7.5081   1.3782   1.3783
     4.8135   4.8135   7.3260   7.3260   7.3392   7.3392   8.9158   8.9158
     9.2067   9.2068

     highest occupied level (ev):     9.6662

!    total energy              =    -430.70390213 Ry
     Harris-Foulkes estimate   =    -430.70390213 Ry
     estimated scf accuracy    <          5.6E-13 Ry

     The total energy is the sum of the following terms:

     one-electron contribution =     -97.22973135 Ry
     hartree contribution      =      85.96078491 Ry
     xc contribution           =    -116.95361735 Ry
     ewald contribution        =    -302.48133834 Ry

     convergence has been achieved in  13 iterations

     Forces acting on atoms (cartesian axes, Ry/au):

     atom    1 type  1   force =     0.00034333    0.00034333    0.00000000
     atom    2 type  1   force =     0.00034294    0.00034294    0.00000000
     atom    3 type  2   force =     0.01051510   -0.01002183    0.00000000
     atom    4 type  2   force =    -0.01002183    0.01051510    0.00000000
     atom    5 type  2   force =     0.00967537    0.00967537    0.00000000
     atom    6 type  2   force =    -0.01085491   -0.01085491    0.00000000

     Total force =     0.029075     Total SCF correction =     0.000003


     Computing stress (Cartesian axis) and pressure

          total   stress  (Ry/bohr**3)                   (kbar)     P=-9433.72
  -0.06476118   0.00000028   0.00000000      -9526.70      0.04      0.00
   0.00000028  -0.06476118   0.00000000          0.04  -9526.70      0.00
  -0.00000000   0.00000000  -0.06286501         -0.00      0.00  -9247.76


     BFGS Geometry Optimization

     number of scf cycles    =   1
     number of bfgs steps    =   0

     enthalpy new            =    -430.7039021327 Ry

     new trust radius        =       0.5000000000 bohr
     new conv_thr            =            1.0E-12 Ry

     new unit-cell volume =    357.11498 a.u.^3 (    52.91898 Ang^3 )
     density =      9.45810 g/cm^3

CELL_PARAMETERS (alat=  9.11000000)
   0.888922769   0.000000000   0.000000000
   0.000000000   0.888922769   0.000000000
   0.000000000   0.000000000   0.597757286

ATOMIC_POSITIONS (crystal)
Sn       0.000002586   0.000002586   0.000000000
Sn       0.500002583   0.500002583   0.500000000
O        0.806079189   0.192924526   0.500000000
O        0.192924526   0.806079189   0.500000000
O        0.306072865   0.306072865   0.000000000
O        0.692918252   0.692918252   0.000000000



     Writing output data file SnO2.save
     Check: negative starting charge=   -0.009566
     NEW-OLD atomic charge density approx. for the potential

     Check: negative/imaginary core charge=   -0.001412    0.000000
     Check: negative starting charge=   -0.001863

     negative rho (up, down):  1.209E+00 0.000E+00
     extrapolated charge   30.24057, renormalised to   52.00000

     total cpu time spent up to now is        6.9 secs

     Self-consistent Calculation

     iteration #  1     ecut=    25.00 Ry     beta= 0.70
     Davidson diagonalization with overlap
     ethr =  1.00E-06,  avg # of iterations = 10.3

     total cpu time spent up to now is        7.6 secs

     total energy              =    -402.29170413 Ry
     Harris-Foulkes estimate   =    -475.37880196 Ry
     estimated scf accuracy    <      57.12854043 Ry

     iteration #  2     ecut=    25.00 Ry     beta= 0.70
     Davidson diagonalization with overlap
     ethr =  1.00E-02,  avg # of iterations =  5.8

     total cpu time spent up to now is        8.1 secs

     total energy              =    -436.89746318 Ry
     Harris-Foulkes estimate   =    -447.90234255 Ry
     estimated scf accuracy    <      17.05410388 Ry

     iteration #  3     ecut=    25.00 Ry     beta= 0.70
     Davidson diagonalization with overlap
     ethr =  1.00E-02,  avg # of iterations =  2.5

     total cpu time spent up to now is        8.4 secs

     total energy              =    -439.62491858 Ry
     Harris-Foulkes estimate   =    -440.05508263 Ry
     estimated scf accuracy    <       0.79826627 Ry

     iteration #  4     ecut=    25.00 Ry     beta= 0.70
     Davidson diagonalization with overlap
     ethr =  1.54E-03,  avg # of iterations =  2.0

     total cpu time spent up to now is        8.6 secs

     total energy              =    -439.58760583 Ry
     Harris-Foulkes estimate   =    -439.71038612 Ry
     estimated scf accuracy    <       0.22411643 Ry

     iteration #  5     ecut=    25.00 Ry     beta= 0.70
     Davidson diagonalization with overlap
     ethr =  4.31E-04,  avg # of iterations =  2.0

     total cpu time spent up to now is        8.9 secs

     total energy              =    -439.57844111 Ry
     Harris-Foulkes estimate   =    -439.61268045 Ry
     estimated scf accuracy    <       0.04541154 Ry

     iteration #  6     ecut=    25.00 Ry     beta= 0.70
     Davidson diagonalization with overlap
     ethr =  8.73E-05,  avg # of iterations =  2.0

     negative rho (up, down):  3.444E-04 0.000E+00

     total cpu time spent up to now is        9.1 secs

     total energy              =    -439.58561417 Ry
     Harris-Foulkes estimate   =    -439.58618757 Ry
     estimated scf accuracy    <       0.00109292 Ry

     iteration #  7     ecut=    25.00 Ry     beta= 0.70
     Davidson diagonalization with overlap
     ethr =  2.10E-06,  avg # of iterations =  2.2

     negative rho (up, down):  6.810E-05 0.000E+00

     total cpu time spent up to now is        9.4 secs

     total energy              =    -439.58579271 Ry
     Harris-Foulkes estimate   =    -439.58584249 Ry
     estimated scf accuracy    <       0.00008410 Ry

     iteration #  8     ecut=    25.00 Ry     beta= 0.70
     Davidson diagonalization with overlap
     ethr =  1.62E-07,  avg # of iterations =  2.0

     total cpu time spent up to now is        9.7 secs

     total energy              =    -439.58579941 Ry
     Harris-Foulkes estimate   =    -439.58580563 Ry
     estimated scf accuracy    <       0.00001084 Ry

     iteration #  9     ecut=    25.00 Ry     beta= 0.70
     Davidson diagonalization with overlap
     ethr =  2.08E-08,  avg # of iterations =  2.8

     total cpu time spent up to now is        9.9 secs

     total energy              =    -439.58580106 Ry
     Harris-Foulkes estimate   =    -439.58580148 Ry
     estimated scf accuracy    <       0.00000077 Ry

     iteration # 10     ecut=    25.00 Ry     beta= 0.70
     Davidson diagonalization with overlap
     ethr =  1.49E-09,  avg # of iterations =  3.0

     total cpu time spent up to now is       10.2 secs

     total energy              =    -439.58580120 Ry
     Harris-Foulkes estimate   =    -439.58580121 Ry
     estimated scf accuracy    <       0.00000003 Ry

     iteration # 11     ecut=    25.00 Ry     beta= 0.70
     Davidson diagonalization with overlap
     ethr =  4.91E-11,  avg # of iterations =  2.2

     total cpu time spent up to now is       10.5 secs

     total energy              =    -439.58580120 Ry
     Harris-Foulkes estimate   =    -439.58580120 Ry
     estimated scf accuracy    <          1.3E-09 Ry

     iteration # 12     ecut=    25.00 Ry     beta= 0.70
     Davidson diagonalization with overlap
     ethr =  2.51E-12,  avg # of iterations =  2.8

     total cpu time spent up to now is       10.8 secs

     total energy              =    -439.58580120 Ry
     Harris-Foulkes estimate   =    -439.58580120 Ry
     estimated scf accuracy    <          4.7E-11 Ry

     iteration # 13     ecut=    25.00 Ry     beta= 0.70
     Davidson diagonalization with overlap
     ethr =  1.00E-13,  avg # of iterations =  3.0

     total cpu time spent up to now is       11.1 secs

     total energy              =    -439.58580120 Ry
     Harris-Foulkes estimate   =    -439.58580120 Ry
     estimated scf accuracy    <          7.8E-12 Ry

     iteration # 14     ecut=    25.00 Ry     beta= 0.70
     Davidson diagonalization with overlap
     ethr =  1.00E-13,  avg # of iterations =  1.2

     total cpu time spent up to now is       11.3 secs

     End of self-consistent calculation

          k = 0.0000 0.0000 0.0000 (  1065 PWs)   bands (ev):

    -7.5990  -7.1761  -4.9846  -4.7030  -4.7030  -4.6678  -4.1801  -4.1513
    -3.7778  -3.7777  -3.6026  -3.4871  -3.4871   0.8000   6.4028  10.3241
    10.3242  10.6487  11.5005  13.5373  14.7572  14.7572  14.8508  15.4735
    15.4736  15.6354

          k = 0.0000 0.0000-0.8365 (  1058 PWs)   bands (ev):

    -6.8534  -6.8532  -5.9999  -5.9998  -4.0702  -4.0702  -3.7100  -3.7100
    -3.6457  -3.6457  -2.8040  -2.8039   0.0681   0.0681   6.8908   6.8909
    10.2111  10.2111  11.8488  11.8488  13.2119  13.2148  13.2325  13.2354
    14.1399  14.1399

          k = 0.0000-0.5625 0.0000 (  1078 PWs)   bands (ev):

    -7.0387  -7.0342  -5.6663  -5.6644  -4.8205  -4.8200  -4.2336  -4.2335
    -4.1000  -4.0995  -4.0252  -4.0233  -0.8961  -0.8902   7.8385   7.8466
    11.8661  11.8663  12.0090  12.0174  13.5879  13.5917  15.1474  15.1523
    15.2858  15.2871

          k = 0.0000-0.5625-0.8365 (  1096 PWs)   bands (ev):

    -7.5316  -7.5314  -4.9474  -4.9468  -4.4372  -4.4371  -4.4150  -4.4142
    -4.1458  -4.1457  -4.0544  -4.0544   0.3607   0.3608   7.7894   7.7896
     8.3560   8.3560  10.0294  10.0295  13.6428  13.6428  13.9415  13.9415
    16.0983  16.0984

          k =-0.5625-0.5625 0.0000 (  1084 PWs)   bands (ev):

    -7.3478  -7.3476  -4.9386  -4.9386  -4.7287  -4.7282  -4.2207  -4.2207
    -4.1750  -4.1746  -4.0461  -4.0460  -2.0823  -2.0822  10.5404  10.5418
    10.6134  10.6148  11.8753  11.8754  13.0411  13.0411  14.5921  14.5921
    15.2352  15.2352

          k =-0.5625-0.5625-0.8365 (  1072 PWs)   bands (ev):

    -7.0323  -7.0321  -6.1303  -6.1301  -4.1839  -4.1839  -3.9588  -3.9588
    -3.9134  -3.9134  -2.6351  -2.6350  -0.0851  -0.0851   5.6800   5.6801
     9.0103   9.0103  13.2974  13.2974  13.5650  13.5650  14.4357  14.4359
    14.5656  14.5658

     highest occupied level (ev):    16.0984

!    total energy              =    -439.58580120 Ry
     Harris-Foulkes estimate   =    -439.58580120 Ry
     estimated scf accuracy    <          2.2E-13 Ry

     The total energy is the sum of the following terms:

     one-electron contribution =     -57.11936118 Ry
     hartree contribution      =      79.22390372 Ry
     xc contribution           =    -121.70517942 Ry
     ewald contribution        =    -339.98516432 Ry

     convergence has been achieved in  14 iterations

     Forces acting on atoms (cartesian axes, Ry/au):

     atom    1 type  1   force =    -0.00317397   -0.00317397    0.00000000
     atom    2 type  1   force =    -0.00242982   -0.00242982    0.00000000
     atom    3 type  2   force =    -0.05239172    0.05134131    0.00000000
     atom    4 type  2   force =     0.05134131   -0.05239172    0.00000000
     atom    5 type  2   force =    -0.04853576   -0.04853576    0.00000000
     atom    6 type  2   force =     0.05518997    0.05518997    0.00000000

     Total force =     0.146959     Total SCF correction =     0.000002


     Computing stress (Cartesian axis) and pressure

          total   stress  (Ry/bohr**3)                   (kbar)     P=-7121.11
  -0.04971737   0.00000036   0.00000000      -7313.68      0.05      0.00
   0.00000036  -0.04971737   0.00000000          0.05  -7313.68      0.00
   0.00000000   0.00000000  -0.04579019          0.00      0.00  -6735.97


     number of scf cycles    =   2
     number of bfgs steps    =   1

     enthalpy old            =    -430.7039021327 Ry
     enthalpy new            =    -439.5858012034 Ry

     CASE: enthalpy_new < enthalpy_old

     new trust radius        =       0.7084126393 bohr
     new conv_thr            =            1.0E-12 Ry

     new unit-cell volume =    220.05450 a.u.^3 (    32.60871 Ang^3 )
     density =     15.34906 g/cm^3

CELL_PARAMETERS (alat=  9.11000000)
   0.722306921   0.000000000   0.000000000
   0.000000000   0.722306921   0.000000000
   0.000000000   0.000000000   0.557868159

ATOMIC_POSITIONS (crystal)
Sn      -0.000643442  -0.000643442   0.000000000
Sn       0.499498464   0.499498464   0.500000000
O        0.794837196   0.203907437   0.500000000
O        0.203907437   0.794837196   0.500000000
O        0.295666120   0.295666120   0.000000000
O        0.704734225   0.704734225   0.000000000



     Writing output data file SnO2.save
     Check: negative starting charge=   -0.001863
     NEW-OLD atomic charge density approx. for the potential

     Check: negative/imaginary core charge=   -0.000542    0.000000

     negative rho (up, down):  2.189E+00 0.000E+00
     extrapolated charge   19.61384, renormalised to   52.00000

     total cpu time spent up to now is       12.4 secs

     Self-consistent Calculation

     iteration #  1     ecut=    25.00 Ry     beta= 0.70
     Davidson diagonalization with overlap
     ethr =  1.00E-06,  avg # of iterations = 10.5

     total cpu time spent up to now is       13.2 secs

     total energy              =    -392.99449053 Ry
     Harris-Foulkes estimate   =    -479.82789572 Ry
     estimated scf accuracy    <     118.81599431 Ry

     iteration #  2     ecut=    25.00 Ry     beta= 0.70
     Davidson diagonalization with overlap
     ethr =  1.00E-02,  avg # of iterations =  5.0

     total cpu time spent up to now is       13.6 secs

     total energy              =    -437.71242915 Ry
     Harris-Foulkes estimate   =    -448.96063892 Ry
     estimated scf accuracy    <      16.47891787 Ry

     iteration #  3     ecut=    25.00 Ry     beta= 0.70
     Davidson diagonalization with overlap
     ethr =  1.00E-02,  avg # of iterations =  3.0

     total cpu time spent up to now is       14.0 secs

     total energy              =    -441.23347787 Ry
     Harris-Foulkes estimate   =    -441.48459002 Ry
     estimated scf accuracy    <       0.43754963 Ry

     iteration #  4     ecut=    25.00 Ry     beta= 0.70
     Davidson diagonalization with overlap
     ethr =  8.41E-04,  avg # of iterations =  2.0

     total cpu time spent up to now is       14.2 secs

     total energy              =    -441.26356063 Ry
     Harris-Foulkes estimate   =    -441.31518885 Ry
     estimated scf accuracy    <       0.08260966 Ry

     iteration #  5     ecut=    25.00 Ry     beta= 0.70
     Davidson diagonalization with overlap
     ethr =  1.59E-04,  avg # of iterations =  2.3

     total cpu time spent up to now is       14.5 secs

     total energy              =    -441.27432861 Ry
     Harris-Foulkes estimate   =    -441.28296589 Ry
     estimated scf accuracy    <       0.01405300 Ry

     iteration #  6     ecut=    25.00 Ry     beta= 0.70
     Davidson diagonalization with overlap
     ethr =  2.70E-05,  avg # of iterations =  2.2

     total cpu time spent up to now is       14.8 secs

     total energy              =    -441.27714298 Ry
     Harris-Foulkes estimate   =    -441.27747506 Ry
     estimated scf accuracy    <       0.00059094 Ry

     iteration #  7     ecut=    25.00 Ry     beta= 0.70
     Davidson diagonalization with overlap
     ethr =  1.14E-06,  avg # of iterations =  2.3

     total cpu time spent up to now is       15.0 secs

     total energy              =    -441.27726790 Ry
     Harris-Foulkes estimate   =    -441.27727259 Ry
     estimated scf accuracy    <       0.00000853 Ry

     iteration #  8     ecut=    25.00 Ry     beta= 0.70
     Davidson diagonalization with overlap
     ethr =  1.64E-08,  avg # of iterations =  3.0

     total cpu time spent up to now is       15.4 secs

     total energy              =    -441.27727012 Ry
     Harris-Foulkes estimate   =    -441.27727141 Ry
     estimated scf accuracy    <       0.00000242 Ry

     iteration #  9     ecut=    25.00 Ry     beta= 0.70
     Davidson diagonalization with overlap
     ethr =  4.65E-09,  avg # of iterations =  3.0

     total cpu time spent up to now is       15.6 secs

     total energy              =    -441.27727058 Ry
     Harris-Foulkes estimate   =    -441.27727061 Ry
     estimated scf accuracy    <       0.00000004 Ry

     iteration # 10     ecut=    25.00 Ry     beta= 0.70
     Davidson diagonalization with overlap
     ethr =  8.25E-11,  avg # of iterations =  2.8

     total cpu time spent up to now is       15.9 secs

     total energy              =    -441.27727059 Ry
     Harris-Foulkes estimate   =    -441.27727059 Ry
     estimated scf accuracy    <          2.6E-09 Ry

     iteration # 11     ecut=    25.00 Ry     beta= 0.70
     Davidson diagonalization with overlap
     ethr =  4.97E-12,  avg # of iterations =  2.0

     total cpu time spent up to now is       16.2 secs

     total energy              =    -441.27727059 Ry
     Harris-Foulkes estimate   =    -441.27727059 Ry
     estimated scf accuracy    <          1.2E-10 Ry

     iteration # 12     ecut=    25.00 Ry     beta= 0.70
     Davidson diagonalization with overlap
     ethr =  2.27E-13,  avg # of iterations =  2.2

     total cpu time spent up to now is       16.5 secs

     total energy              =    -441.27727059 Ry
     Harris-Foulkes estimate   =    -441.27727059 Ry
     estimated scf accuracy    <          1.2E-11 Ry

     iteration # 13     ecut=    25.00 Ry     beta= 0.70
     Davidson diagonalization with overlap
     ethr =  1.00E-13,  avg # of iterations =  2.0

     total cpu time spent up to now is       16.7 secs

     End of self-consistent calculation

          k = 0.0000 0.0000 0.0000 (  1065 PWs)   bands (ev):

    -0.2139   0.0704   4.3003   5.7530   6.1059   6.4273   6.4274   7.1923
     7.1937   7.8078   8.6298   8.6395   8.6397  15.3172  18.8103  21.1450
    21.1450  21.5340  21.6685  24.9071  26.0680  26.0682  26.7679  28.5008
    28.5008  30.7692

          k = 0.0000 0.0000-0.8963 (  1058 PWs)   bands (ev):

     0.8694   0.8701   3.5034   3.5035   6.9736   6.9742   7.0221   7.0225
     7.3603   7.3607   9.4992   9.4993  13.1893  13.1899  17.6135  17.6137
    21.5332  21.5337  23.0095  23.0098  24.8135  24.8136  26.1332  26.1368
    26.5481  26.5519

          k = 0.0000-0.6922 0.0000 (  1078 PWs)   bands (ev):

     0.9923   0.9938   2.5939   2.5972   6.8712   6.8752   6.8931   6.8947
     7.6362   7.6366   7.9266   7.9278  13.0433  13.0674  19.0563  19.0681
    22.4380  22.4560  22.8208  22.8230  24.5409  24.5444  27.3513  27.3684
    29.6245  29.6411

          k = 0.0000-0.6922-0.8963 (  1096 PWs)   bands (ev):

     0.4203   0.4208   5.5151   5.5428   5.5517   5.5787   6.6477   6.6485
     7.4631   7.4633   8.8998   8.8999  13.9981  13.9984  17.7393  17.7395
    20.0411  20.0411  21.4585  21.4586  24.3599  24.3599  24.9146  24.9147
    31.1444  31.1446

          k =-0.6922-0.6922 0.0000 (  1084 PWs)   bands (ev):

     0.2563   0.2568   5.7758   5.8065   5.8377   5.8685   6.2759   6.2760
     7.2406   7.2410   8.4407   8.4410  10.4663  10.4664  20.6718  20.6718
    21.7112  21.7114  23.8602  23.8605  26.3933  26.3933  26.8678  26.8682
    28.0223  28.0224

          k =-0.6922-0.6922-0.8963 (  1072 PWs)   bands (ev):

     1.0436   1.0443   3.0129   3.0129   6.6206   6.6209   7.4210   7.4214
     8.7809   8.7810  10.0917  10.0919  12.6351  12.6356  14.5960  14.5963
    18.3318  18.3319  25.7820  25.7821  25.9630  25.9631  26.5832  26.5837
    28.7857  28.7864

     highest occupied level (ev):    31.1446

!    total energy              =    -441.27727059 Ry
     Harris-Foulkes estimate   =    -441.27727059 Ry
     estimated scf accuracy    <          2.9E-13 Ry

     The total energy is the sum of the following terms:

     one-electron contribution =      28.03779612 Ry
     hartree contribution      =      61.71502180 Ry
     xc contribution           =    -127.41951160 Ry
     ewald contribution        =    -403.61057691 Ry

     convergence has been achieved in  13 iterations

     Forces acting on atoms (cartesian axes, Ry/au):

     atom    1 type  1   force =     0.05174764    0.05174764    0.00000000
     atom    2 type  1   force =     0.00775182    0.00775182    0.00000000
     atom    3 type  2   force =     0.66666416   -0.66356141    0.00000000
     atom    4 type  2   force =    -0.66356141    0.66666416    0.00000000
     atom    5 type  2   force =     0.63401530    0.63401530    0.00000000
     atom    6 type  2   force =    -0.69661751   -0.69661751    0.00000000

     Total force =     1.884009     Total SCF correction =     0.000001


     Computing stress (Cartesian axis) and pressure

          total   stress  (Ry/bohr**3)                   (kbar)     P= 5815.87
   0.05290370   0.00000255   0.00000000       7782.40      0.37      0.00
   0.00000255   0.05290370   0.00000000          0.37   7782.40      0.00
   0.00000000   0.00000000   0.01279915          0.00      0.00   1882.82


     number of scf cycles    =   3
     number of bfgs steps    =   2

     enthalpy old            =    -439.5858012034 Ry
     enthalpy new            =    -441.2772705944 Ry

     CASE: enthalpy_new < enthalpy_old

     new trust radius        =       0.7377707258 bohr
     new conv_thr            =            1.0E-12 Ry

     new unit-cell volume =    229.89246 a.u.^3 (    34.06655 Ang^3 )
     density =     14.69221 g/cm^3

CELL_PARAMETERS (alat=  9.11000000)
   0.851734281   0.000000000   0.000000000
   0.000000000   0.851734281   0.000000000
   0.000000000   0.000000000   0.419142156

ATOMIC_POSITIONS (crystal)
Sn       0.001623698   0.001623698   0.000000000
Sn       0.499804176   0.499804176   0.500000000
O        0.823884424   0.174984310   0.500000000
O        0.174984310   0.823884424   0.500000000
O        0.323312002   0.323312002   0.000000000
O        0.674391390   0.674391390   0.000000000



     Writing output data file SnO2.save
     NEW-OLD atomic charge density approx. for the potential

     Check: negative/imaginary core charge=   -0.000770    0.000000
     extrapolated charge   54.22514, renormalised to   52.00000

     total cpu time spent up to now is       18.0 secs

     Self-consistent Calculation

     iteration #  1     ecut=    25.00 Ry     beta= 0.70
     Davidson diagonalization with overlap
     ethr =  1.00E-06,  avg # of iterations =  8.7

     total cpu time spent up to now is       18.8 secs

     total energy              =    -437.23500359 Ry
     Harris-Foulkes estimate   =    -434.05490567 Ry
     estimated scf accuracy    <       0.42648300 Ry

     iteration #  2     ecut=    25.00 Ry     beta= 0.70
     Davidson diagonalization with overlap
     ethr =  8.20E-04,  avg # of iterations =  2.0

     total cpu time spent up to now is       19.1 secs

     total energy              =    -437.33594823 Ry
     Harris-Foulkes estimate   =    -437.38715304 Ry
     estimated scf accuracy    <       0.08328952 Ry

     iteration #  3     ecut=    25.00 Ry     beta= 0.70
     Davidson diagonalization with overlap
     ethr =  1.60E-04,  avg # of iterations =  2.0

     total cpu time spent up to now is       19.3 secs

     total energy              =    -437.35307948 Ry
     Harris-Foulkes estimate   =    -437.35355942 Ry
     estimated scf accuracy    <       0.00193724 Ry

     iteration #  4     ecut=    25.00 Ry     beta= 0.70
     Davidson diagonalization with overlap
     ethr =  3.73E-06,  avg # of iterations =  2.0

     total cpu time spent up to now is       19.6 secs

     total energy              =    -437.35344340 Ry
     Harris-Foulkes estimate   =    -437.35340621 Ry
     estimated scf accuracy    <       0.00012079 Ry

     iteration #  5     ecut=    25.00 Ry     beta= 0.70
     Davidson diagonalization with overlap
     ethr =  2.32E-07,  avg # of iterations =  2.0

     total cpu time spent up to now is       19.9 secs

     total energy              =    -437.35345186 Ry
     Harris-Foulkes estimate   =    -437.35345667 Ry
     estimated scf accuracy    <       0.00000924 Ry

     iteration #  6     ecut=    25.00 Ry     beta= 0.70
     Davidson diagonalization with overlap
     ethr =  1.78E-08,  avg # of iterations =  2.0

     total cpu time spent up to now is       20.2 secs

     total energy              =    -437.35345323 Ry
     Harris-Foulkes estimate   =    -437.35345336 Ry
     estimated scf accuracy    <       0.00000031 Ry

     iteration #  7     ecut=    25.00 Ry     beta= 0.70
     Davidson diagonalization with overlap
     ethr =  5.87E-10,  avg # of iterations =  2.2

     total cpu time spent up to now is       20.5 secs

     total energy              =    -437.35345331 Ry
     Harris-Foulkes estimate   =    -437.35345332 Ry
     estimated scf accuracy    <       0.00000002 Ry

     iteration #  8     ecut=    25.00 Ry     beta= 0.70
     Davidson diagonalization with overlap
     ethr =  4.55E-11,  avg # of iterations =  2.2

     total cpu time spent up to now is       20.8 secs

     total energy              =    -437.35345331 Ry
     Harris-Foulkes estimate   =    -437.35345331 Ry
     estimated scf accuracy    <          1.6E-09 Ry

     iteration #  9     ecut=    25.00 Ry     beta= 0.70
     Davidson diagonalization with overlap
     ethr =  2.99E-12,  avg # of iterations =  2.2

     total cpu time spent up to now is       21.0 secs

     total energy              =    -437.35345331 Ry
     Harris-Foulkes estimate   =    -437.35345331 Ry
     estimated scf accuracy    <          4.0E-11 Ry

     iteration # 10     ecut=    25.00 Ry     beta= 0.70
     Davidson diagonalization with overlap
     ethr =  1.00E-13,  avg # of iterations =  2.3

     total cpu time spent up to now is       21.3 secs

     total energy              =    -437.35345331 Ry
     Harris-Foulkes estimate   =    -437.35345331 Ry
     estimated scf accuracy    <          9.3E-12 Ry

     iteration # 11     ecut=    25.00 Ry     beta= 0.70
     Davidson diagonalization with overlap
     ethr =  1.00E-13,  avg # of iterations =  2.0

     total cpu time spent up to now is       21.5 secs

     End of self-consistent calculation

          k = 0.0000 0.0000 0.0000 (  1065 PWs)   bands (ev):

    -5.3502  -5.0443   1.1723   1.4516   2.1036   2.1086   3.7403   3.7525
     4.1966   5.3916   6.2377   6.2380   6.2817  11.1205  16.1215  16.1233
    18.1729  20.8586  22.5296  22.5323  23.0371  24.0463  25.8001  26.1986
    30.7330  30.7365

          k = 0.0000 0.0000-1.1929 (  1058 PWs)   bands (ev):

    -5.7315  -5.7273   1.9539   1.9581   3.7668   3.7731   3.9601   3.9614
     6.6118   6.6133   7.3942   7.3950  14.7831  14.7837  16.7735  16.7756
    17.0668  17.0704  21.7586  21.7607  22.6034  22.6077  24.8106  24.8125
    29.2604  29.2609

          k = 0.0000-0.5870 0.0000 (  1078 PWs)   bands (ev):

    -5.1467  -5.1421   1.7186   1.7254   2.1208   2.1297   2.7641   2.7903
     4.9070   4.9546   6.1997   6.2136   8.9637   8.9992  15.6126  15.6688
    20.8962  20.9271  23.5389  23.5456  23.5476  23.5749  24.2708  24.2883
    30.5739  30.5928

          k = 0.0000-0.5870-1.1929 (  1096 PWs)   bands (ev):

    -5.8513  -5.8470   1.7447   1.7481   3.8201   3.8224   4.3477   4.3554
     6.3689   6.3700   6.5347   6.5355  14.2856  14.2858  16.6039  16.6075
    18.5395  18.5407  20.4970  20.4971  22.0704  22.0744  24.4435  24.4446
    30.8406  30.8429

          k =-0.5870-0.5870 0.0000 (  1084 PWs)   bands (ev):

    -5.1323  -5.1275   1.5145   1.5188   2.0893   2.0941   3.3647   3.3708
     4.9616   4.9674   6.2017   6.2020   8.0785   8.0809  16.0820  16.0826
    22.1254  22.1281  22.8977  22.9007  23.5056  23.5093  24.3723  24.3754
    30.6258  30.6288

          k =-0.5870-0.5870-1.1929 (  1072 PWs)   bands (ev):

    -5.8394  -5.8350   1.9153   1.9194   3.0852   3.0872   4.8096   4.8130
     6.5507   6.5519   7.0898   7.0903  14.3993  14.4012  16.0733  16.0796
    16.6147  16.6148  22.4910  22.4934  23.4749  23.4770  24.4719  24.4721
    29.6969  29.6980

     highest occupied level (ev):    30.8429

!    total energy              =    -437.35345331 Ry
     Harris-Foulkes estimate   =    -437.35345331 Ry
     estimated scf accuracy    <          3.7E-13 Ry

     The total energy is the sum of the following terms:

     one-electron contribution =     -34.89349744 Ry
     hartree contribution      =      89.46478519 Ry
     xc contribution           =    -127.99806107 Ry
     ewald contribution        =    -363.92667999 Ry

     convergence has been achieved in  11 iterations

     Forces acting on atoms (cartesian axes, Ry/au):

     atom    1 type  1   force =     0.03396121    0.03396121    0.00000000
     atom    2 type  1   force =    -0.04825681   -0.04825681    0.00000000
     atom    3 type  2   force =    -1.89342745    1.83751205    0.00000000
     atom    4 type  2   force =     1.83751205   -1.89342745    0.00000000
     atom    5 type  2   force =    -1.83133110   -1.83133110    0.00000000
     atom    6 type  2   force =     1.90154210    1.90154210    0.00000000

     Total force =     5.279136     Total SCF correction =     0.000002


     Computing stress (Cartesian axis) and pressure

          total   stress  (Ry/bohr**3)                   (kbar)     P= 6698.08
   0.00279935   0.00002408   0.00000000        411.80      3.54      0.00
   0.00002408   0.00279935   0.00000000          3.54    411.80      0.00
   0.00000000   0.00000000   0.13099919          0.00      0.00  19270.64


     number of scf cycles    =   4
     number of bfgs steps    =   3

     enthalpy old            =    -441.2772705944 Ry
     enthalpy new            =    -437.3534533143 Ry

     CASE: enthalpy_new > enthalpy_old

     new trust radius        =       0.2677878414 bohr
     new conv_thr            =            1.0E-12 Ry

     new unit-cell volume =    225.56889 a.u.^3 (    33.42586 Ang^3 )
     density =     14.97383 g/cm^3

CELL_PARAMETERS (alat=  9.11000000)
   0.756839425   0.000000000   0.000000000
   0.000000000   0.756839425   0.000000000
   0.000000000   0.000000000   0.520854686

ATOMIC_POSITIONS (crystal)
Sn      -0.000038546  -0.000038546   0.000000000
Sn       0.499580031   0.499580031   0.500000000
O        0.802587284   0.196190460   0.500000000
O        0.196190460   0.802587284   0.500000000
O        0.303042316   0.303042316   0.000000000
O        0.696638456   0.696638456   0.000000000



     Writing output data file SnO2.save
     NEW-OLD atomic charge density approx. for the potential

     Check: negative/imaginary core charge=   -0.000512    0.000000
     extrapolated charge   51.00335, renormalised to   52.00000

     total cpu time spent up to now is       22.7 secs

     Self-consistent Calculation

     iteration #  1     ecut=    25.00 Ry     beta= 0.70
     Davidson diagonalization with overlap
     ethr =  1.00E-06,  avg # of iterations =  7.0

     total cpu time spent up to now is       23.4 secs

     total energy              =    -441.80104759 Ry
     Harris-Foulkes estimate   =    -442.62132660 Ry
     estimated scf accuracy    <       0.22940236 Ry

     iteration #  2     ecut=    25.00 Ry     beta= 0.70
     Davidson diagonalization with overlap
     ethr =  4.41E-04,  avg # of iterations =  2.0

     total cpu time spent up to now is       23.7 secs

     total energy              =    -441.86626069 Ry
     Harris-Foulkes estimate   =    -441.87443328 Ry
     estimated scf accuracy    <       0.01828924 Ry

     iteration #  3     ecut=    25.00 Ry     beta= 0.70
     Davidson diagonalization with overlap
     ethr =  3.52E-05,  avg # of iterations =  2.0

     total cpu time spent up to now is       23.9 secs

     total energy              =    -441.86904362 Ry
     Harris-Foulkes estimate   =    -441.86881972 Ry
     estimated scf accuracy    <       0.00060617 Ry

     iteration #  4     ecut=    25.00 Ry     beta= 0.70
     Davidson diagonalization with overlap
     ethr =  1.17E-06,  avg # of iterations =  2.0

     total cpu time spent up to now is       24.1 secs

     total energy              =    -441.86910070 Ry
     Harris-Foulkes estimate   =    -441.86909310 Ry
     estimated scf accuracy    <       0.00002198 Ry

     iteration #  5     ecut=    25.00 Ry     beta= 0.70
     Davidson diagonalization with overlap
     ethr =  4.23E-08,  avg # of iterations =  2.7

     total cpu time spent up to now is       24.4 secs

     total energy              =    -441.86910434 Ry
     Harris-Foulkes estimate   =    -441.86910626 Ry
     estimated scf accuracy    <       0.00000362 Ry

     iteration #  6     ecut=    25.00 Ry     beta= 0.70
     Davidson diagonalization with overlap
     ethr =  6.96E-09,  avg # of iterations =  2.2

     total cpu time spent up to now is       24.7 secs

     total energy              =    -441.86910514 Ry
     Harris-Foulkes estimate   =    -441.86910523 Ry
     estimated scf accuracy    <       0.00000022 Ry

     iteration #  7     ecut=    25.00 Ry     beta= 0.70
     Davidson diagonalization with overlap
     ethr =  4.27E-10,  avg # of iterations =  2.0

     total cpu time spent up to now is       25.0 secs

     total energy              =    -441.86910519 Ry
     Harris-Foulkes estimate   =    -441.86910520 Ry
     estimated scf accuracy    <       0.00000002 Ry

     iteration #  8     ecut=    25.00 Ry     beta= 0.70
     Davidson diagonalization with overlap
     ethr =  4.28E-11,  avg # of iterations =  2.0

     total cpu time spent up to now is       25.3 secs

     total energy              =    -441.86910519 Ry
     Harris-Foulkes estimate   =    -441.86910519 Ry
     estimated scf accuracy    <          4.3E-10 Ry

     iteration #  9     ecut=    25.00 Ry     beta= 0.70
     Davidson diagonalization with overlap
     ethr =  8.20E-13,  avg # of iterations =  2.3

     total cpu time spent up to now is       25.6 secs

     total energy              =    -441.86910519 Ry
     Harris-Foulkes estimate   =    -441.86910519 Ry
     estimated scf accuracy    <          3.5E-11 Ry

     iteration # 10     ecut=    25.00 Ry     beta= 0.70
     Davidson diagonalization with overlap
     ethr =  1.00E-13,  avg # of iterations =  2.0

     total cpu time spent up to now is       25.8 secs

     total energy              =    -441.86910519 Ry
     Harris-Foulkes estimate   =    -441.86910519 Ry
     estimated scf accuracy    <          1.2E-12 Ry

     iteration # 11     ecut=    25.00 Ry     beta= 0.70
     Davidson diagonalization with overlap
     ethr =  1.00E-13,  avg # of iterations =  1.0

     total cpu time spent up to now is       26.0 secs

     End of self-consistent calculation

          k = 0.0000 0.0000 0.0000 (  1065 PWs)   bands (ev):

    -0.4989   0.0288   3.7201   4.8990   5.4850   5.4851   5.7583   6.0616
     6.0619   7.6744   7.7125   7.9068   7.9069  13.9063  19.3906  19.3907
    19.4922  20.0291  20.8451  23.9654  25.1249  25.1251  26.3085  28.1539
    28.1542  29.1128

          k = 0.0000 0.0000-0.9600 (  1058 PWs)   bands (ev):

     1.4606   1.4613   2.0101   2.0108   6.2223   6.2223   6.6468   6.6468
     7.1984   7.1985   8.6289   8.6289  13.1386  13.1389  16.2343  16.2343
    19.8320  19.8320  22.2089  22.2090  24.3318  24.3319  24.7349  24.7355
    25.7544  25.7548

          k = 0.0000-0.6606 0.0000 (  1078 PWs)   bands (ev):

     0.7090   0.7164   2.1549   2.1628   5.6147   5.6149   6.2289   6.2349
     7.0137   7.0184   7.4457   7.4507  11.6596  11.6598  17.7738  17.7746
    22.0609  22.0651  22.1068  22.1110  24.1138  24.1376  27.4210  27.4215
    27.9087  27.9116

          k = 0.0000-0.6606-0.9600 (  1096 PWs)   bands (ev):

     0.3422   0.3423   4.8336   4.8342   4.9349   4.9352   5.9702   5.9703
     7.3558   7.3559   8.1136   8.1136  13.1468  13.1471  17.0588  17.0588
    18.9980  18.9981  20.7140  20.7141  23.3869  23.3870  24.1649  24.1649
    29.6335  29.6337

          k =-0.6606-0.6606 0.0000 (  1084 PWs)   bands (ev):

     0.0634   0.0636   4.6417   4.6418   5.0087   5.0089   5.3839   5.3841
     7.0611   7.0611   7.7359   7.7359   9.5011   9.5012  19.7047  19.7048
    21.6262  21.6263  22.9949  22.9950  25.2118  25.2119  25.4388  25.4390
    27.8231  27.8234

          k =-0.6606-0.6606-0.9600 (  1072 PWs)   bands (ev):

     1.1871   1.1875   2.0988   2.0993   5.9695   5.9695   7.4118   7.4118
     7.9139   7.9139   8.6679   8.6681  12.6340  12.6343  14.0260  14.0262
    17.8055  17.8056  24.5540  24.5543  24.7999  24.8004  26.0869  26.0870
    26.7068  26.7071

     highest occupied level (ev):    29.6337

!    total energy              =    -441.86910519 Ry
     Harris-Foulkes estimate   =    -441.86910519 Ry
     estimated scf accuracy    <          7.5E-14 Ry

     The total energy is the sum of the following terms:

     one-electron contribution =      17.49908955 Ry
     hartree contribution      =      65.48254449 Ry
     xc contribution           =    -127.32656617 Ry
     ewald contribution        =    -397.52417307 Ry

     convergence has been achieved in  11 iterations

     Forces acting on atoms (cartesian axes, Ry/au):

     atom    1 type  1   force =    -0.00121821   -0.00121821    0.00000000
     atom    2 type  1   force =     0.00661338    0.00661338    0.00000000
     atom    3 type  2   force =    -0.04682336    0.04393325    0.00000000
     atom    4 type  2   force =     0.04393325   -0.04682336    0.00000000
     atom    5 type  2   force =    -0.04677174   -0.04677174    0.00000000
     atom    6 type  2   force =     0.04426669    0.04426669    0.00000000

     Total force =     0.128957     Total SCF correction =     0.000001


     Computing stress (Cartesian axis) and pressure

          total   stress  (Ry/bohr**3)                   (kbar)     P= 5158.39
   0.03245929  -0.00000054   0.00000000       4774.93     -0.08      0.00
  -0.00000054   0.03245929   0.00000000         -0.08   4774.93      0.00
   0.00000000   0.00000000   0.04027954          0.00      0.00   5925.32


     number of scf cycles    =   5
     number of bfgs steps    =   3

     enthalpy old            =    -441.2772705944 Ry
     enthalpy new            =    -441.8691051941 Ry

     CASE: enthalpy_new < enthalpy_old

     new trust radius        =       0.4431578347 bohr
     new conv_thr            =            1.0E-12 Ry

     new unit-cell volume =    305.86400 a.u.^3 (    45.32437 Ang^3 )
     density =     11.04291 g/cm^3

CELL_PARAMETERS (alat=  9.11000000)
   0.822708067   0.000000000   0.000000000
   0.000000000   0.822708067   0.000000000
   0.000000000   0.000000000   0.597697881

ATOMIC_POSITIONS (crystal)
Sn       0.000281498   0.000281498   0.000000000
Sn       0.500348498   0.500348498   0.500000000
O        0.805362153   0.193294523   0.500000000
O        0.193294523   0.805362153   0.500000000
O        0.305382469   0.305382469   0.000000000
O        0.693330859   0.693330859   0.000000000



     Writing output data file SnO2.save
     NEW-OLD atomic charge density approx. for the potential

     Check: negative/imaginary core charge=   -0.001097    0.000000
     Check: negative starting charge=   -0.000654

     negative rho (up, down):  8.990E-04 0.000E+00
     extrapolated charge   65.65017, renormalised to   52.00000

     total cpu time spent up to now is       27.2 secs

     Self-consistent Calculation

     iteration #  1     ecut=    25.00 Ry     beta= 0.70
     Davidson diagonalization with overlap
     ethr =  1.00E-06,  avg # of iterations =  9.0

     negative rho (up, down):  1.969E-04 0.000E+00

     total cpu time spent up to now is       27.8 secs

     total energy              =    -430.74618492 Ry
     Harris-Foulkes estimate   =    -427.03876585 Ry
     estimated scf accuracy    <       6.04216560 Ry

     iteration #  2     ecut=    25.00 Ry     beta= 0.70
     Davidson diagonalization with overlap
     ethr =  1.00E-02,  avg # of iterations =  4.3

     negative rho (up, down):  9.750E-05 0.000E+00

     total cpu time spent up to now is       28.2 secs

     total energy              =    -442.05821417 Ry
     Harris-Foulkes estimate   =    -445.42670949 Ry
     estimated scf accuracy    <       7.73136458 Ry

     iteration #  3     ecut=    25.00 Ry     beta= 0.70
     Davidson diagonalization with overlap
     ethr =  1.00E-02,  avg # of iterations =  2.0

     negative rho (up, down):  4.236E-05 0.000E+00

     total cpu time spent up to now is       28.4 secs

     total energy              =    -441.82671896 Ry
     Harris-Foulkes estimate   =    -442.44003150 Ry
     estimated scf accuracy    <       1.80474715 Ry

     iteration #  4     ecut=    25.00 Ry     beta= 0.70
     Davidson diagonalization with overlap
     ethr =  3.47E-03,  avg # of iterations =  1.0

     total cpu time spent up to now is       28.6 secs

     total energy              =    -441.63034933 Ry
     Harris-Foulkes estimate   =    -441.88494760 Ry
     estimated scf accuracy    <       0.69721466 Ry

     iteration #  5     ecut=    25.00 Ry     beta= 0.70
     Davidson diagonalization with overlap
     ethr =  1.34E-03,  avg # of iterations =  1.0

     total cpu time spent up to now is       28.8 secs

     total energy              =    -441.51915210 Ry
     Harris-Foulkes estimate   =    -441.65709155 Ry
     estimated scf accuracy    <       0.22019896 Ry

     iteration #  6     ecut=    25.00 Ry     beta= 0.70
     Davidson diagonalization with overlap
     ethr =  4.23E-04,  avg # of iterations =  2.0

     total cpu time spent up to now is       29.1 secs

     total energy              =    -441.56216157 Ry
     Harris-Foulkes estimate   =    -441.56230423 Ry
     estimated scf accuracy    <       0.00032662 Ry

     iteration #  7     ecut=    25.00 Ry     beta= 0.70
     Davidson diagonalization with overlap
     ethr =  6.28E-07,  avg # of iterations =  3.3

     total cpu time spent up to now is       29.5 secs

     total energy              =    -441.56241915 Ry
     Harris-Foulkes estimate   =    -441.56242117 Ry
     estimated scf accuracy    <       0.00006782 Ry

     iteration #  8     ecut=    25.00 Ry     beta= 0.70
     Davidson diagonalization with overlap
     ethr =  1.30E-07,  avg # of iterations =  2.0

     total cpu time spent up to now is       29.7 secs

     total energy              =    -441.56240443 Ry
     Harris-Foulkes estimate   =    -441.56243007 Ry
     estimated scf accuracy    <       0.00006628 Ry

     iteration #  9     ecut=    25.00 Ry     beta= 0.70
     Davidson diagonalization with overlap
     ethr =  1.27E-07,  avg # of iterations =  1.0

     total cpu time spent up to now is       29.9 secs

     total energy              =    -441.56240028 Ry
     Harris-Foulkes estimate   =    -441.56240785 Ry
     estimated scf accuracy    <       0.00001330 Ry

     iteration # 10     ecut=    25.00 Ry     beta= 0.70
     Davidson diagonalization with overlap
     ethr =  2.56E-08,  avg # of iterations =  2.0

     total cpu time spent up to now is       30.2 secs

     total energy              =    -441.56240274 Ry
     Harris-Foulkes estimate   =    -441.56240281 Ry
     estimated scf accuracy    <       0.00000016 Ry

     iteration # 11     ecut=    25.00 Ry     beta= 0.70
     Davidson diagonalization with overlap
     ethr =  2.98E-10,  avg # of iterations =  2.3

     total cpu time spent up to now is       30.5 secs

     total energy              =    -441.56240277 Ry
     Harris-Foulkes estimate   =    -441.56240278 Ry
     estimated scf accuracy    <       0.00000002 Ry

     iteration # 12     ecut=    25.00 Ry     beta= 0.70
     Davidson diagonalization with overlap
     ethr =  3.94E-11,  avg # of iterations =  2.0

     total cpu time spent up to now is       30.8 secs

     total energy              =    -441.56240277 Ry
     Harris-Foulkes estimate   =    -441.56240278 Ry
     estimated scf accuracy    <          6.9E-09 Ry

     iteration # 13     ecut=    25.00 Ry     beta= 0.70
     Davidson diagonalization with overlap
     ethr =  1.32E-11,  avg # of iterations =  2.0

     total cpu time spent up to now is       31.0 secs

     total energy              =    -441.56240277 Ry
     Harris-Foulkes estimate   =    -441.56240277 Ry
     estimated scf accuracy    <          6.5E-10 Ry

     iteration # 14     ecut=    25.00 Ry     beta= 0.70
     Davidson diagonalization with overlap
     ethr =  1.24E-12,  avg # of iterations =  2.8

     total cpu time spent up to now is       31.3 secs

     total energy              =    -441.56240277 Ry
     Harris-Foulkes estimate   =    -441.56240277 Ry
     estimated scf accuracy    <          6.5E-11 Ry

     iteration # 15     ecut=    25.00 Ry     beta= 0.70
     Davidson diagonalization with overlap
     ethr =  1.25E-13,  avg # of iterations =  2.0

     total cpu time spent up to now is       31.5 secs

     total energy              =    -441.56240277 Ry
     Harris-Foulkes estimate   =    -441.56240277 Ry
     estimated scf accuracy    <          2.7E-12 Ry

     iteration # 16     ecut=    25.00 Ry     beta= 0.70
     Davidson diagonalization with overlap
     ethr =  1.00E-13,  avg # of iterations =  1.0

     total cpu time spent up to now is       31.7 secs

     End of self-consistent calculation

          k = 0.0000 0.0000 0.0000 (  1065 PWs)   bands (ev):

    -5.1599  -4.9714  -2.0244  -1.3595  -1.3421  -1.2234  -1.2232  -0.9553
    -0.5721  -0.5706  -0.1587   0.1734   0.1735   5.5319   9.8196  12.6816
    13.4319  13.4322  14.0562  16.7327  17.8488  17.8488  18.6135  18.8902
    19.0037  19.0041

          k = 0.0000 0.0000-0.8365 (  1058 PWs)   bands (ev):

    -3.9701  -3.9691  -3.6424  -3.6420  -0.8332  -0.8332  -0.5242  -0.5237
    -0.3831  -0.3830   0.7852   0.7857   3.8018   3.8021   9.7110   9.7112
    13.3636  13.3637  15.6750  15.6756  15.7362  15.7365  16.6365  16.6373
    16.9828  16.9830

          k = 0.0000-0.6077 0.0000 (  1078 PWs)   bands (ev):

    -4.2932  -4.2826  -3.4876  -3.4833  -1.2667  -1.2651  -1.1662  -1.1661
    -0.4533  -0.4520  -0.4275  -0.4186   3.2295   3.2380  10.9169  10.9271
    14.5309  14.5343  14.9253  14.9347  16.6566  16.6602  18.6651  18.6657
    18.6669  18.6730

          k = 0.0000-0.6077-0.8365 (  1096 PWs)   bands (ev):

    -4.8785  -4.8778  -1.7976  -1.7877  -1.6385  -1.6286  -1.1051  -1.1048
    -0.7648  -0.7646  -0.2888  -0.2886   4.2787   4.2788  10.8760  10.8761
    11.2558  11.2560  12.8664  12.8668  16.5341  16.5341  16.8248  16.8248
    20.0583  20.0583

          k =-0.6077-0.6077 0.0000 (  1084 PWs)   bands (ev):

    -4.9633  -4.9627  -1.4426  -1.4371  -1.3553  -1.3551  -1.1306  -1.1262
    -1.0773  -1.0769  -0.4301  -0.4300   1.5202   1.5205  13.4837  13.4838
    14.4831  14.4834  14.7712  14.7715  15.8708  15.8710  17.7394  17.7395
    18.6915  18.6920

          k =-0.6077-0.6077-0.8365 (  1072 PWs)   bands (ev):

    -4.0118  -4.0107  -3.8736  -3.8732  -0.9220  -0.9220  -0.6628  -0.6626
    -0.1898  -0.1896   1.0215   1.0220   3.5097   3.5100   7.9970   7.9973
    11.4698  11.4699  16.8515  16.8520  17.5784  17.5794  17.6251  17.6265
    17.6297  17.6299

     highest occupied level (ev):    20.0583

!    total energy              =    -441.56240277 Ry
     Harris-Foulkes estimate   =    -441.56240277 Ry
     estimated scf accuracy    <          1.1E-13 Ry

     The total energy is the sum of the following terms:

     one-electron contribution =     -30.47283911 Ry
     hartree contribution      =      73.08950784 Ry
     xc contribution           =    -123.53464859 Ry
     ewald contribution        =    -360.64442291 Ry

     convergence has been achieved in  16 iterations

     Forces acting on atoms (cartesian axes, Ry/au):

     atom    1 type  1   force =    -0.01448398   -0.01448398    0.00000000
     atom    2 type  1   force =    -0.00335612   -0.00335612    0.00000000
     atom    3 type  2   force =     0.03037660   -0.03524576    0.00000000
     atom    4 type  2   force =    -0.03524576    0.03037660    0.00000000
     atom    5 type  2   force =     0.04444271    0.04444271    0.00000000
     atom    6 type  2   force =    -0.02173346   -0.02173346    0.00000000

     Total force =     0.098321     Total SCF correction =     0.000002


     Computing stress (Cartesian axis) and pressure

          total   stress  (Ry/bohr**3)                   (kbar)     P=-4539.34
  -0.02545157   0.00000302   0.00000000      -3744.05      0.44      0.00
   0.00000302  -0.02545157   0.00000000          0.44  -3744.05      0.00
   0.00000000   0.00000000  -0.04167030          0.00      0.00  -6129.91


     number of scf cycles    =   6
     number of bfgs steps    =   4

     enthalpy old            =    -441.8691051941 Ry
     enthalpy new            =    -441.5624027748 Ry

     CASE: enthalpy_new > enthalpy_old

     new trust radius        =       0.2011867819 bohr
     new conv_thr            =            1.0E-12 Ry

     new unit-cell volume =    259.54701 a.u.^3 (    38.46090 Ang^3 )
     density =     13.01355 g/cm^3

CELL_PARAMETERS (alat=  9.11000000)
   0.786308078   0.000000000   0.000000000
   0.000000000   0.786308078   0.000000000
   0.000000000   0.000000000   0.555233191

ATOMIC_POSITIONS (crystal)
Sn       0.000104637   0.000104637   0.000000000
Sn       0.499923832   0.499923832   0.500000000
O        0.803828719   0.194894861   0.500000000
O        0.194894861   0.803828719   0.500000000
O        0.304089265   0.304089265   0.000000000
O        0.695158686   0.695158686   0.000000000



     Writing output data file SnO2.save
     Check: negative starting charge=   -0.000654
     NEW-OLD atomic charge density approx. for the potential

     Check: negative/imaginary core charge=   -0.000760    0.000000
     extrapolated charge   42.72099, renormalised to   52.00000

     total cpu time spent up to now is       32.9 secs

     Self-consistent Calculation

     iteration #  1     ecut=    25.00 Ry     beta= 0.70
     Davidson diagonalization with overlap
     ethr =  1.00E-06,  avg # of iterations =  6.0

     total cpu time spent up to now is       33.4 secs

     total energy              =    -440.05374258 Ry
     Harris-Foulkes estimate   =    -450.21912172 Ry
     estimated scf accuracy    <       2.14399542 Ry

     iteration #  2     ecut=    25.00 Ry     beta= 0.70
     Davidson diagonalization with overlap
     ethr =  4.12E-03,  avg # of iterations =  3.0

     total cpu time spent up to now is       33.7 secs

     total energy              =    -442.35215868 Ry
     Harris-Foulkes estimate   =    -442.98417750 Ry
     estimated scf accuracy    <       1.38020570 Ry

     iteration #  3     ecut=    25.00 Ry     beta= 0.70
     Davidson diagonalization with overlap
     ethr =  2.65E-03,  avg # of iterations =  2.0

     total cpu time spent up to now is       34.0 secs

     total energy              =    -442.40284550 Ry
     Harris-Foulkes estimate   =    -442.47226970 Ry
     estimated scf accuracy    <       0.14361930 Ry

     iteration #  4     ecut=    25.00 Ry     beta= 0.70
     Davidson diagonalization with overlap
     ethr =  2.76E-04,  avg # of iterations =  2.0

     total cpu time spent up to now is       34.2 secs

     total energy              =    -442.40929431 Ry
     Harris-Foulkes estimate   =    -442.41875030 Ry
     estimated scf accuracy    <       0.01469938 Ry

     iteration #  5     ecut=    25.00 Ry     beta= 0.70
     Davidson diagonalization with overlap
     ethr =  2.83E-05,  avg # of iterations =  2.3

     total cpu time spent up to now is       34.5 secs

     total energy              =    -442.41367773 Ry
     Harris-Foulkes estimate   =    -442.41477067 Ry
     estimated scf accuracy    <       0.00185901 Ry

     iteration #  6     ecut=    25.00 Ry     beta= 0.70
     Davidson diagonalization with overlap
     ethr =  3.58E-06,  avg # of iterations =  2.0

     total cpu time spent up to now is       34.8 secs

     total energy              =    -442.41401577 Ry
     Harris-Foulkes estimate   =    -442.41401887 Ry
     estimated scf accuracy    <       0.00000680 Ry

     iteration #  7     ecut=    25.00 Ry     beta= 0.70
     Davidson diagonalization with overlap
     ethr =  1.31E-08,  avg # of iterations =  2.5

     total cpu time spent up to now is       35.1 secs

     total energy              =    -442.41401819 Ry
     Harris-Foulkes estimate   =    -442.41401907 Ry
     estimated scf accuracy    <       0.00000254 Ry

     iteration #  8     ecut=    25.00 Ry     beta= 0.70
     Davidson diagonalization with overlap
     ethr =  4.88E-09,  avg # of iterations =  2.0

     total cpu time spent up to now is       35.4 secs

     total energy              =    -442.41401795 Ry
     Harris-Foulkes estimate   =    -442.41401834 Ry
     estimated scf accuracy    <       0.00000065 Ry

     iteration #  9     ecut=    25.00 Ry     beta= 0.70
     Davidson diagonalization with overlap
     ethr =  1.25E-09,  avg # of iterations =  2.0

     total cpu time spent up to now is       35.6 secs

     total energy              =    -442.41401811 Ry
     Harris-Foulkes estimate   =    -442.41401811 Ry
     estimated scf accuracy    <       0.00000001 Ry

     iteration # 10     ecut=    25.00 Ry     beta= 0.70
     Davidson diagonalization with overlap
     ethr =  1.95E-11,  avg # of iterations =  2.0

     total cpu time spent up to now is       35.9 secs

     total energy              =    -442.41401811 Ry
     Harris-Foulkes estimate   =    -442.41401811 Ry
     estimated scf accuracy    <          1.5E-10 Ry

     iteration # 11     ecut=    25.00 Ry     beta= 0.70
     Davidson diagonalization with overlap
     ethr =  2.85E-13,  avg # of iterations =  2.7

     total cpu time spent up to now is       36.2 secs

     total energy              =    -442.41401811 Ry
     Harris-Foulkes estimate   =    -442.41401811 Ry
     estimated scf accuracy    <          1.4E-11 Ry

     iteration # 12     ecut=    25.00 Ry     beta= 0.70
     Davidson diagonalization with overlap
     ethr =  1.00E-13,  avg # of iterations =  2.0

     total cpu time spent up to now is       36.4 secs

     total energy              =    -442.41401811 Ry
     Harris-Foulkes estimate   =    -442.41401811 Ry
     estimated scf accuracy    <          1.2E-12 Ry

     iteration # 13     ecut=    25.00 Ry     beta= 0.70
     Davidson diagonalization with overlap
     ethr =  1.00E-13,  avg # of iterations =  1.0

     total cpu time spent up to now is       36.7 secs

     End of self-consistent calculation

          k = 0.0000 0.0000 0.0000 (  1065 PWs)   bands (ev):

    -2.6907  -2.4554   1.0024   1.9608   2.2508   2.2508   2.4853   2.8064
     2.8068   3.5754   3.8604   4.0819   4.0820   9.9109  14.6907  16.0359
    16.4300  16.4300  17.3418  20.3374  21.5270  21.5270  22.4908  23.4798
    23.4798  23.9046

          k = 0.0000 0.0000-0.9005 (  1058 PWs)   bands (ev):

    -0.9972  -0.9967  -0.9100  -0.9099   2.9938   2.9940   3.3768   3.3769
     3.3848   3.3848   4.6701   4.6701   8.6015   8.6016  12.9393  12.9394
    16.5397  16.5397  18.9675  18.9676  20.1331  20.1333  20.6310  20.6311
    21.0524  21.0526

          k = 0.0000-0.6359 0.0000 (  1078 PWs)   bands (ev):

    -1.6717  -1.6595  -0.6175  -0.6069   2.3089   2.3092   2.9264   2.9307
     3.3047   3.3055   3.5814   3.5850   7.5817   7.5886  14.3102  14.3161
    18.2424  18.2499  18.4918  18.4961  20.4359  20.4448  22.9564  22.9610
    23.1823  23.1839

          k = 0.0000-0.6359-0.9005 (  1096 PWs)   bands (ev):

    -2.1504  -2.1502   1.6184   1.6204   1.7799   1.7819   2.7219   2.7220
     3.3708   3.3709   4.0018   4.0018   8.9142   8.9142  13.9348  13.9348
    15.7431  15.7435  15.9067  15.9072  20.1396  20.1396  20.3129  20.3130
    24.7722  24.7722

          k =-0.6359-0.6359 0.0000 (  1084 PWs)   bands (ev):

    -2.3536  -2.3534   1.7806   1.7823   2.0422   2.0439   2.1429   2.1429
     3.1997   3.1998   3.7366   3.7367   5.5775   5.5776  16.6000  16.6001
    18.0217  18.0219  19.4550  19.4550  20.0234  20.0236  21.4632  21.4632
    23.1544  23.1545

          k =-0.6359-0.6359-0.9005 (  1072 PWs)   bands (ev):

    -1.2471  -1.2469  -0.8686  -0.8684   2.8241   2.8243   3.4377   3.4378
     3.9792   3.9792   4.9685   4.9686   8.2143   8.2143  10.9259  10.9260
    14.5300  14.5300  21.1239  21.1245  21.2030  21.2033  21.3353  21.3360
    22.1129  22.1131

     highest occupied level (ev):    24.7722

!    total energy              =    -442.41401811 Ry
     Harris-Foulkes estimate   =    -442.41401811 Ry
     estimated scf accuracy    <          8.6E-14 Ry

     The total energy is the sum of the following terms:

     one-electron contribution =      -5.86400360 Ry
     hartree contribution      =      69.15999535 Ry
     xc contribution           =    -125.59726631 Ry
     ewald contribution        =    -380.11274355 Ry

     convergence has been achieved in  13 iterations

     Forces acting on atoms (cartesian axes, Ry/au):

     atom    1 type  1   force =    -0.01015172   -0.01015172    0.00000000
     atom    2 type  1   force =    -0.00062388   -0.00062388    0.00000000
     atom    3 type  2   force =     0.00604385   -0.01044996    0.00000000
     atom    4 type  2   force =    -0.01044996    0.00604385    0.00000000
     atom    5 type  2   force =     0.01592653    0.01592653    0.00000000
     atom    6 type  2   force =    -0.00074481   -0.00074481    0.00000000

     Total force =     0.031730     Total SCF correction =     0.000002


     Computing stress (Cartesian axis) and pressure

          total   stress  (Ry/bohr**3)                   (kbar)     P= -109.47
   0.00076491   0.00000126   0.00000000        112.52      0.19      0.00
   0.00000126   0.00076491   0.00000000          0.19    112.52      0.00
   0.00000000   0.00000000  -0.00376232          0.00      0.00   -553.46


     number of scf cycles    =   7
     number of bfgs steps    =   4

     enthalpy old            =    -441.8691051941 Ry
     enthalpy new            =    -442.4140181091 Ry

     CASE: enthalpy_new < enthalpy_old

     new trust radius        =       0.0523171974 bohr
     new conv_thr            =            1.0E-12 Ry

     new unit-cell volume =    259.47595 a.u.^3 (    38.45037 Ang^3 )
     density =     13.01712 g/cm^3

CELL_PARAMETERS (alat=  9.11000000)
   0.792662004   0.000000000   0.000000000
   0.000000000   0.792662004   0.000000000
   0.000000000   0.000000000   0.546217856

ATOMIC_POSITIONS (crystal)
Sn      -0.001000127  -0.001000127   0.000000000
Sn       0.499886062   0.499886062   0.500000000
O        0.800710816   0.197607869   0.500000000
O        0.197607869   0.800710816   0.500000000
O        0.301952795   0.301952795   0.000000000
O        0.698842585   0.698842585   0.000000000



     Writing output data file SnO2.save
     NEW-OLD atomic charge density approx. for the potential

     Check: negative/imaginary core charge=   -0.000751    0.000000
     extrapolated charge   51.98576, renormalised to   52.00000

     total cpu time spent up to now is       37.7 secs

     Self-consistent Calculation

     iteration #  1     ecut=    25.00 Ry     beta= 0.70
     Davidson diagonalization with overlap
     ethr =  1.00E-06,  avg # of iterations =  5.2

     total cpu time spent up to now is       38.2 secs

     total energy              =    -442.41994077 Ry
     Harris-Foulkes estimate   =    -442.43312020 Ry
     estimated scf accuracy    <       0.00155384 Ry

     iteration #  2     ecut=    25.00 Ry     beta= 0.70
     Davidson diagonalization with overlap
     ethr =  2.99E-06,  avg # of iterations =  2.2

     total cpu time spent up to now is       38.5 secs

     total energy              =    -442.42019580 Ry
     Harris-Foulkes estimate   =    -442.42019232 Ry
     estimated scf accuracy    <       0.00006326 Ry

     iteration #  3     ecut=    25.00 Ry     beta= 0.70
     Davidson diagonalization with overlap
     ethr =  1.22E-07,  avg # of iterations =  2.0

     total cpu time spent up to now is       38.7 secs

     total energy              =    -442.42020603 Ry
     Harris-Foulkes estimate   =    -442.42020556 Ry
     estimated scf accuracy    <       0.00000655 Ry

     iteration #  4     ecut=    25.00 Ry     beta= 0.70
     Davidson diagonalization with overlap
     ethr =  1.26E-08,  avg # of iterations =  2.2

     total cpu time spent up to now is       39.0 secs

     total energy              =    -442.42020700 Ry
     Harris-Foulkes estimate   =    -442.42020767 Ry
     estimated scf accuracy    <       0.00000136 Ry

     iteration #  5     ecut=    25.00 Ry     beta= 0.70
     Davidson diagonalization with overlap
     ethr =  2.62E-09,  avg # of iterations =  2.5

     total cpu time spent up to now is       39.3 secs

     total energy              =    -442.42020735 Ry
     Harris-Foulkes estimate   =    -442.42020738 Ry
     estimated scf accuracy    <       0.00000007 Ry

     iteration #  6     ecut=    25.00 Ry     beta= 0.70
     Davidson diagonalization with overlap
     ethr =  1.26E-10,  avg # of iterations =  2.0

     total cpu time spent up to now is       39.6 secs

     total energy              =    -442.42020737 Ry
     Harris-Foulkes estimate   =    -442.42020737 Ry
     estimated scf accuracy    <          1.5E-09 Ry

     iteration #  7     ecut=    25.00 Ry     beta= 0.70
     Davidson diagonalization with overlap
     ethr =  2.97E-12,  avg # of iterations =  2.0

     total cpu time spent up to now is       39.8 secs

     total energy              =    -442.42020737 Ry
     Harris-Foulkes estimate   =    -442.42020737 Ry
     estimated scf accuracy    <          5.3E-11 Ry

     iteration #  8     ecut=    25.00 Ry     beta= 0.70
     Davidson diagonalization with overlap
     ethr =  1.02E-13,  avg # of iterations =  2.3

     total cpu time spent up to now is       40.1 secs

     total energy              =    -442.42020737 Ry
     Harris-Foulkes estimate   =    -442.42020737 Ry
     estimated scf accuracy    <          3.5E-12 Ry

     iteration #  9     ecut=    25.00 Ry     beta= 0.70
     Davidson diagonalization with overlap
     ethr =  1.00E-13,  avg # of iterations =  1.0

     total cpu time spent up to now is       40.3 secs

     End of self-consistent calculation

          k = 0.0000 0.0000 0.0000 (  1065 PWs)   bands (ev):

    -2.6893  -2.5001   0.8592   1.9101   2.2297   2.2298   2.5173   2.6658
     2.6682   3.6294   3.8106   4.0206   4.0211   9.7404  14.5944  16.1949
    16.1957  16.2976  17.3062  20.4061  21.4661  21.4662  22.5555  23.4395
    23.4396  24.0580

          k = 0.0000 0.0000-0.9154 (  1058 PWs)   bands (ev):

    -1.1771  -1.1742  -0.8706  -0.8694   2.8802   2.8813   3.4096   3.4104
     3.4610   3.4615   4.7043   4.7045   8.5415   8.5424  13.0302  13.0306
    16.4161  16.4164  18.9829  18.9833  20.0175  20.0177  20.6525  20.6526
    21.0040  21.0046

          k = 0.0000-0.6308 0.0000 (  1078 PWs)   bands (ev):

    -1.7197  -1.6956  -0.6620  -0.6375   2.2914   2.2967   2.8579   2.8592
     3.2557   3.2741   3.5504   3.5550   7.4479   7.4725  14.1116  14.1502
    18.4163  18.4533  18.4737  18.4779  20.4710  20.4818  22.9032  22.9334
    23.1193  23.1251

          k = 0.0000-0.6308-0.9154 (  1096 PWs)   bands (ev):

    -2.2475  -2.2467   1.6509   1.6957   1.7107   1.7542   2.6211   2.6221
     3.4137   3.4142   3.9854   3.9855   8.9645   8.9649  13.8696  13.8702
    15.7821  15.7826  15.8775  15.8780  20.0958  20.0958  20.3626  20.3629
    24.6668  24.6668

          k =-0.6308-0.6308 0.0000 (  1084 PWs)   bands (ev):

    -2.3813  -2.3803   1.6749   1.6875   1.9327   1.9451   2.1284   2.1285
     3.2431   3.2437   3.6896   3.6901   5.4714   5.4717  16.5502  16.5502
    18.1908  18.1911  19.2687  19.2689  20.0348  20.0354  21.4105  21.4111
    23.1318  23.1320

          k =-0.6308-0.6308-0.9154 (  1072 PWs)   bands (ev):

    -1.4081  -1.4064  -0.8408  -0.8407   2.7189   2.7195   3.4998   3.5004
     3.9427   3.9430   5.0317   5.0319   8.1873   8.1879  10.9956  10.9964
    14.5260  14.5262  21.0709  21.0723  21.1909  21.1928  21.2610  21.2611
    22.1157  22.1161

     highest occupied level (ev):    24.6668

!    total energy              =    -442.42020737 Ry
     Harris-Foulkes estimate   =    -442.42020737 Ry
     estimated scf accuracy    <          4.2E-13 Ry

     The total energy is the sum of the following terms:

     one-electron contribution =      -6.84663000 Ry
     hartree contribution      =      69.61768333 Ry
     xc contribution           =    -125.63402440 Ry
     ewald contribution        =    -379.55723630 Ry

     convergence has been achieved in   9 iterations

     Forces acting on atoms (cartesian axes, Ry/au):

     atom    1 type  1   force =     0.04024069    0.04024069    0.00000000
     atom    2 type  1   force =     0.00693160    0.00693160    0.00000000
     atom    3 type  2   force =     0.01356981   -0.00998731    0.00000000
     atom    4 type  2   force =    -0.00998731    0.01356981    0.00000000
     atom    5 type  2   force =    -0.01326497   -0.01326497    0.00000000
     atom    6 type  2   force =    -0.03748982   -0.03748982    0.00000000

     Total force =     0.084056     Total SCF correction =     0.000002


     Computing stress (Cartesian axis) and pressure

          total   stress  (Ry/bohr**3)                   (kbar)     P=  -25.51
  -0.00036277   0.00000513   0.00000000        -53.36      0.75      0.00
   0.00000513  -0.00036277   0.00000000          0.75    -53.36      0.00
   0.00000000   0.00000000   0.00020538          0.00      0.00     30.21


     number of scf cycles    =   8
     number of bfgs steps    =   5

     enthalpy old            =    -442.4140181091 Ry
     enthalpy new            =    -442.4202073663 Ry

     CASE: enthalpy_new < enthalpy_old

     new trust radius        =       0.0260853920 bohr
     new conv_thr            =            1.0E-12 Ry

     new unit-cell volume =    259.13113 a.u.^3 (    38.39927 Ang^3 )
     density =     13.03444 g/cm^3

CELL_PARAMETERS (alat=  9.11000000)
   0.791634010   0.000000000   0.000000000
   0.000000000   0.791634010   0.000000000
   0.000000000   0.000000000   0.546909622

ATOMIC_POSITIONS (crystal)
Sn       0.001554197   0.001554197   0.000000000
Sn       0.500340218   0.500340218   0.500000000
O        0.801433230   0.197077465   0.500000000
O        0.197077465   0.801433230   0.500000000
O        0.301001825   0.301001825   0.000000000
O        0.696593065   0.696593065   0.000000000



     Writing output data file SnO2.save
     NEW-OLD atomic charge density approx. for the potential

     Check: negative/imaginary core charge=   -0.000749    0.000000
     extrapolated charge   51.93081, renormalised to   52.00000

     total cpu time spent up to now is       41.4 secs

     Self-consistent Calculation

     iteration #  1     ecut=    25.00 Ry     beta= 0.70
     Davidson diagonalization with overlap
     ethr =  1.00E-06,  avg # of iterations =  4.2

     total cpu time spent up to now is       41.8 secs

     total energy              =    -442.41942013 Ry
     Harris-Foulkes estimate   =    -442.48070747 Ry
     estimated scf accuracy    <       0.00059227 Ry

     iteration #  2     ecut=    25.00 Ry     beta= 0.70
     Davidson diagonalization with overlap
     ethr =  1.14E-06,  avg # of iterations =  2.0

     total cpu time spent up to now is       42.1 secs

     total energy              =    -442.41962623 Ry
     Harris-Foulkes estimate   =    -442.41968724 Ry
     estimated scf accuracy    <       0.00012846 Ry

     iteration #  3     ecut=    25.00 Ry     beta= 0.70
     Davidson diagonalization with overlap
     ethr =  2.47E-07,  avg # of iterations =  2.0

     total cpu time spent up to now is       42.4 secs

     total energy              =    -442.41964668 Ry
     Harris-Foulkes estimate   =    -442.41964795 Ry
     estimated scf accuracy    <       0.00000774 Ry

     iteration #  4     ecut=    25.00 Ry     beta= 0.70
     Davidson diagonalization with overlap
[...]



     Writing output data file SnO2.save
     NEW-OLD atomic charge density approx. for the potential

     Check: negative/imaginary core charge=   -0.000696    0.000000

     total cpu time spent up to now is      161.4 secs

     Self-consistent Calculation

     iteration #  1     ecut=    25.00 Ry     beta= 0.70
     Davidson diagonalization with overlap
     ethr =  1.00E-06,  avg # of iterations =  1.0

     Threshold (ethr) on eigenvalues was too large:
     Diagonalizing with lowered threshold

     Davidson diagonalization with overlap
     c_bands:  5 eigenvalues not converged
     c_bands:  2 eigenvalues not converged
     c_bands:  2 eigenvalues not converged
     c_bands:  5 eigenvalues not converged
     c_bands:  1 eigenvalues not converged
     c_bands:  1 eigenvalues not converged
     ethr =  1.19E-15,  avg # of iterations = 50.0

     total cpu time spent up to now is      164.2 secs

     End of self-consistent calculation

          k = 0.0000 0.0000 0.0000 (  1065 PWs)   bands (ev):

    -2.6251   0.5531   1.2440   1.3400   2.7908   3.1589   3.7483   3.8670
     3.8987   4.1464   4.5522   5.0664   7.8340  11.2740  14.8884  15.6988
    17.0829  17.9549  18.8325  21.4622  23.0784  23.1962  23.8003  23.9950
    24.9726  25.0806

          k = 0.0000 0.0000-0.9151 (  1058 PWs)   bands (ev):

    -0.7119  -0.3300   1.1142   1.3119   3.3037   3.3246   3.8388   4.0127
     4.0518   4.2072   5.3250   6.0407   9.6878   9.7505  14.6440  15.2219
    17.3506  17.3589  18.8119  21.0127  21.1835  21.5406  22.4141  22.7155
    22.8501  23.0162

          k = 0.0000-0.6410 0.0000 (  1078 PWs)   bands (ev):

    -1.5054  -0.7248   1.0081   1.6419   2.9728   3.1643   3.5417   3.7072
     3.8077   3.8745   4.4705   4.7576   8.6976   9.2657  14.7020  15.7381
    18.7947  18.8127  20.2270  20.6385  20.8472  21.7960  23.7162  24.5736
    24.7126  25.3219

          k = 0.0000-0.6410-0.9151 (  1096 PWs)   bands (ev):

    -1.7289   0.7898   1.1335   1.7537   2.9241   3.2739   3.5727   3.7377
     4.1079   4.4479   4.7263   6.0030   8.1290  10.5571  14.5775  14.8506
    15.7873  16.7951  18.1892  18.8057  20.5229  21.2696  23.2083  23.8996
    25.2303  26.0347

          k =-0.6410-0.6410 0.0000 (  1084 PWs)   bands (ev):

    -2.0066  -0.0006   1.9636   2.2325   2.6460   3.0185   3.4858   3.5430
     3.6994   3.8648   4.7753   5.3696   6.3433   7.0781  15.2220  18.4574
    18.7577  18.9168  21.0469  21.1457  21.7762  22.4207  22.6092  23.1077
    24.2303  25.1742

          k =-0.6410-0.6410-0.9151 (  1072 PWs)   bands (ev):

    -0.8027  -0.3921   0.9977   1.2334   3.4006   3.4484   3.8563   4.0818
     4.2965   4.7159   5.7546   7.1924   8.3135   9.1559  11.8105  13.3802
    14.5194  15.3581  21.8331  21.9897  22.0043  22.4998  22.7913  23.3429
    25.2762  25.6032

     highest occupied level (ev):    26.0347

!    total energy              =    -442.74203775 Ry
     Harris-Foulkes estimate   =    -442.74203775 Ry
     estimated scf accuracy    <          8.8E-13 Ry

     The total energy is the sum of the following terms:

     one-electron contribution =      12.36368236 Ry
     hartree contribution      =      62.03199561 Ry
     xc contribution           =    -125.32044863 Ry
     ewald contribution        =    -391.81726708 Ry

     convergence has been achieved in   1 iterations

     Forces acting on atoms (cartesian axes, Ry/au):

     atom    1 type  1   force =     0.00014641    0.00014641    0.00000000
     atom    2 type  1   force =     0.00009548    0.00009548    0.00000000
     atom    3 type  2   force =     0.00000109   -0.00005577    0.00000000
     atom    4 type  2   force =    -0.00005577    0.00000109    0.00000000
     atom    5 type  2   force =    -0.00008115   -0.00008115    0.00000000
     atom    6 type  2   force =    -0.00010606   -0.00010606    0.00000000

     Total force =     0.000321     Total SCF correction =     0.000005


     Computing stress (Cartesian axis) and pressure

          total   stress  (Ry/bohr**3)                   (kbar)     P=    0.50
   0.00000440   0.00728613   0.00000000          0.65   1071.83      0.00
   0.00728613   0.00000440   0.00000000       1071.83      0.65      0.00
   0.00000000   0.00000000   0.00000133          0.00      0.00      0.20


     bfgs converged in  38 scf cycles and  32 bfgs steps
     (criteria: energy <  1.0E-10 Ry, force <  1.0E-09Ry/Bohr, cell <  5.0E-01kbar)

     End of BFGS Geometry Optimization

     Final enthalpy =    -442.7420377492 Ry
Begin final coordinates
     new unit-cell volume =    251.36842 a.u.^3 (    37.24896 Ang^3 )
     density =     13.43697 g/cm^3

CELL_PARAMETERS (alat=  9.11000000)
   0.780042309   0.000000000   0.000000000
   0.000000000   0.780042309   0.000000000
   0.000000000   0.000000000   0.546410794

ATOMIC_POSITIONS (crystal)
Sn       0.046912063   0.046912063   0.000000000
Sn       0.556595298   0.556595298   0.500000000
O        0.702145014   0.114024042   0.500000000
O        0.114024042   0.702145014   0.500000000
O        0.344834990   0.344834990   0.000000000
O        0.733488592   0.733488592   0.000000000
End final coordinates



     A final scf calculation at the relaxed structure.
     The G-vectors are recalculated for the final unit cell
     Results may differ from those at the preceding step.
 
     Parallelization info
     --------------------
     sticks:   dense  smooth     PW     G-vecs:    dense   smooth      PW
     Min         200     200     68                 2122     2122     444
     Max         201     201     69                 2125     2125     445
     Sum         401     401    137                 4247     4247     889
 


     bravais-lattice index     =            6
     lattice parameter (alat)  =       9.1100  a.u.
     unit-cell volume          =     251.3684 (a.u.)^3
     number of atoms/cell      =            6
     number of atomic types    =            2
     number of electrons       =        52.00
     number of Kohn-Sham states=           26
     kinetic-energy cutoff     =      25.0000  Ry
     charge density cutoff     =     100.0000  Ry
     convergence threshold     =      1.0E-12
     mixing beta               =       0.7000
     number of iterations used =            8  plain     mixing
     Exchange-correlation      = PBE ( 1  4  3  4 0 0)

     celldm(1)=   9.110000  celldm(2)=   0.000000  celldm(3)=   0.670000
     celldm(4)=   0.000000  celldm(5)=   0.000000  celldm(6)=   0.000000

     crystal axes: (cart. coord. in units of alat)
               a(1) = (   0.780042   0.000000   0.000000 )  
               a(2) = (   0.000000   0.780042   0.000000 )  
               a(3) = (   0.000000   0.000000   0.546411 )  

     reciprocal axes: (cart. coord. in units 2 pi/alat)
               b(1) = (  1.281982  0.000000  0.000000 )  
               b(2) = (  0.000000  1.281982  0.000000 )  
               b(3) = (  0.000000  0.000000  1.830125 )  


     PseudoPot. # 1 for Sn read from file:
     ../../Pseudo_potentials/Sn_PBE.upf
     MD5 check sum: 78e6386ae56e929f0568ae8bf606a80c
     Pseudo is Norm-conserving + core correction, Zval = 14.0
     Generated using ONCVPSP code by D. R. Hamann
     Using radial grid of 1628 points,  6 beta functions with: 
                l(1) =   0
                l(2) =   0
                l(3) =   1
                l(4) =   1
                l(5) =   2
                l(6) =   2

     PseudoPot. # 2 for O  read from file:
     ../../Pseudo_potentials/O_PBE.upf
     MD5 check sum: 3e3f909f7470e8921608ab6b1f57bbae
     Pseudo is Norm-conserving + core correction, Zval =  6.0
     Generated using ONCVPSP code by D. R. Hamann
     Using radial grid of  936 points,  5 beta functions with: 
                l(1) =   0
                l(2) =   0
                l(3) =   1
                l(4) =   1
                l(5) =   2

     atomic species   valence    mass     pseudopotential
        Sn            14.00   118.71000     Sn( 1.00)
        O              6.00    15.99900     O ( 1.00)

      4 Sym. Ops. (no inversion) found



   Cartesian axes

     site n.     atom                  positions (alat units)
         1           Sn  tau(   1) = (   0.0365934   0.0365934   0.0000000  )
         2           Sn  tau(   2) = (   0.4341679   0.4341679   0.2732054  )
         3           O   tau(   3) = (   0.5477028   0.0889436   0.2732054  )
         4           O   tau(   4) = (   0.0889436   0.5477028   0.2732054  )
         5           O   tau(   5) = (   0.2689859   0.2689859   0.0000000  )
         6           O   tau(   6) = (   0.5721521   0.5721521   0.0000000  )

     number of k points=     6
                       cart. coord. in units 2pi/alat
        k(    1) = (   0.0000000   0.0000000   0.0000000), wk =   0.2500000
        k(    2) = (   0.0000000   0.0000000  -0.9150624), wk =   0.2500000
        k(    3) = (   0.0000000  -0.6409909   0.0000000), wk =   0.5000000
        k(    4) = (   0.0000000  -0.6409909  -0.9150624), wk =   0.5000000
        k(    5) = (  -0.6409909  -0.6409909   0.0000000), wk =   0.2500000
        k(    6) = (  -0.6409909  -0.6409909  -0.9150624), wk =   0.2500000

     Dense  grid:     4247 G-vectors     FFT dimensions: (  24,  24,  15)

     Estimated max dynamical RAM per process >       8.45 MB

     Estimated total dynamical RAM >      16.90 MB

     Check: negative/imaginary core charge=   -0.003354    0.000000

     Initial potential from superposition of free atoms
     Check: negative starting charge=   -0.004728

     starting charge   51.99690, renormalised to   52.00000

     negative rho (up, down):  4.729E-03 0.000E+00
     Starting wfc are   34 randomized atomic wfcs

     Writing output data file SnO2.save

     total cpu time spent up to now is      165.3 secs

     Self-consistent Calculation

     iteration #  1     ecut=    25.00 Ry     beta= 0.70
     Davidson diagonalization with overlap
     ethr =  1.00E-06,  avg # of iterations =  7.0

     negative rho (up, down):  1.377E-03 0.000E+00

     total cpu time spent up to now is      165.6 secs

     total energy              =    -426.35544395 Ry
     Harris-Foulkes estimate   =    -429.61560854 Ry
     estimated scf accuracy    <       4.45946158 Ry

     iteration #  2     ecut=    25.00 Ry     beta= 0.70
     Davidson diagonalization with overlap
     ethr =  8.58E-03,  avg # of iterations =  2.2

     negative rho (up, down):  4.388E-04 0.000E+00

     total cpu time spent up to now is      165.8 secs

     total energy              =    -427.22177940 Ry
     Harris-Foulkes estimate   =    -427.48727655 Ry
     estimated scf accuracy    <       0.42008695 Ry

     iteration #  3     ecut=    25.00 Ry     beta= 0.70
     Davidson diagonalization with overlap
     ethr =  8.08E-04,  avg # of iterations =  3.0

     negative rho (up, down):  3.691E-05 0.000E+00

     total cpu time spent up to now is      165.9 secs

     total energy              =    -427.31774404 Ry
     Harris-Foulkes estimate   =    -427.34915360 Ry
     estimated scf accuracy    <       0.06297297 Ry

     iteration #  4     ecut=    25.00 Ry     beta= 0.70
     Davidson diagonalization with overlap
     ethr =  1.21E-04,  avg # of iterations =  2.2

     total cpu time spent up to now is      166.1 secs

     total energy              =    -427.32882841 Ry
     Harris-Foulkes estimate   =    -427.33260185 Ry
     estimated scf accuracy    <       0.00660714 Ry

     iteration #  5     ecut=    25.00 Ry     beta= 0.70
     Davidson diagonalization with overlap
     ethr =  1.27E-05,  avg # of iterations =  3.0

     total cpu time spent up to now is      166.2 secs

     total energy              =    -427.33050521 Ry
     Harris-Foulkes estimate   =    -427.33132296 Ry
     estimated scf accuracy    <       0.00153074 Ry

     iteration #  6     ecut=    25.00 Ry     beta= 0.70
     Davidson diagonalization with overlap
     ethr =  2.94E-06,  avg # of iterations =  2.7

     total cpu time spent up to now is      166.4 secs

     total energy              =    -427.33087177 Ry
     Harris-Foulkes estimate   =    -427.33089398 Ry
     estimated scf accuracy    <       0.00004639 Ry

     iteration #  7     ecut=    25.00 Ry     beta= 0.70
     Davidson diagonalization with overlap
     ethr =  8.92E-08,  avg # of iterations =  2.8

     total cpu time spent up to now is      166.5 secs

     total energy              =    -427.33088363 Ry
     Harris-Foulkes estimate   =    -427.33088451 Ry
     estimated scf accuracy    <       0.00000263 Ry

     iteration #  8     ecut=    25.00 Ry     beta= 0.70
     Davidson diagonalization with overlap
     ethr =  5.05E-09,  avg # of iterations =  2.8

     total cpu time spent up to now is      166.7 secs

     total energy              =    -427.33088413 Ry
     Harris-Foulkes estimate   =    -427.33088425 Ry
     estimated scf accuracy    <       0.00000023 Ry

     iteration #  9     ecut=    25.00 Ry     beta= 0.70
     Davidson diagonalization with overlap
     ethr =  4.49E-10,  avg # of iterations =  2.8

     total cpu time spent up to now is      166.8 secs

     total energy              =    -427.33088419 Ry
     Harris-Foulkes estimate   =    -427.33088419 Ry
     estimated scf accuracy    <       0.00000001 Ry

     iteration # 10     ecut=    25.00 Ry     beta= 0.70
     Davidson diagonalization with overlap
     ethr =  1.96E-11,  avg # of iterations =  2.8

     total cpu time spent up to now is      167.0 secs

     total energy              =    -427.33088419 Ry
     Harris-Foulkes estimate   =    -427.33088419 Ry
     estimated scf accuracy    <          5.1E-10 Ry

     iteration # 11     ecut=    25.00 Ry     beta= 0.70
     Davidson diagonalization with overlap
     ethr =  9.84E-13,  avg # of iterations =  2.8

     total cpu time spent up to now is      167.1 secs

     total energy              =    -427.33088419 Ry
     Harris-Foulkes estimate   =    -427.33088419 Ry
     estimated scf accuracy    <          2.7E-11 Ry

     iteration # 12     ecut=    25.00 Ry     beta= 0.70
     Davidson diagonalization with overlap
     ethr =  1.00E-13,  avg # of iterations =  2.0

     total cpu time spent up to now is      167.2 secs

     End of self-consistent calculation

          k = 0.0000 0.0000 0.0000 (   519 PWs)   bands (ev):

    -3.2954   0.7852   1.5821   1.6500   3.0815   3.3900   4.8619   5.1719
     5.5072   6.2867   7.2742   7.3755   8.5596  12.3851  15.7463  16.8486
    17.8439  19.3651  19.6422  23.4697  24.8520  25.1904  25.5538  25.5893
    27.2558  27.6610

          k = 0.0000 0.0000-0.9151 (   536 PWs)   bands (ev):

    -1.4719  -0.9529   1.1457   1.5555   4.2511   4.3906   5.0700   5.1306
     5.5311   5.5749   6.2123   6.7009  10.2031  10.2321  15.4897  16.1794
    18.0210  18.6281  20.0869  22.2540  22.7756  23.2619  23.8149  24.3289
    24.4104  24.6906

          k = 0.0000-0.6410 0.0000 (   528 PWs)   bands (ev):

    -2.1752  -1.1493   1.1793   2.0240   3.5912   4.6785   4.9360   4.9472
     5.7321   5.8717   6.1094   6.1919   9.0201   9.9440  15.7532  16.8386
    19.4737  20.1441  21.5859  22.2847  22.3943  23.5673  25.6702  26.3625
    26.9442  27.7225

          k = 0.0000-0.6410-0.9151 (   544 PWs)   bands (ev):

    -2.6810   0.9197   1.1561   1.1851   3.7125   4.0340   4.3338   4.6607
     5.0841   5.9443   6.2362   6.9084   9.0116  11.7652  15.0704  15.2826
    16.4304  17.7070  18.9187  20.0229  21.8994  22.7597  24.8507  25.8232
    27.2235  28.5293

          k =-0.6410-0.6410 0.0000 (   512 PWs)   bands (ev):

    -2.4402  -0.0838   2.5310   2.8949   3.1246   3.7598   4.9516   5.8565
     5.8761   5.9119   6.7935   7.3803   7.8741   9.6039  15.7046  19.6857
    19.9738  20.2286  22.6911  23.1102  23.1770  23.9486  25.1770  25.7190
    26.2996  27.5666

          k =-0.6410-0.6410-0.9151 (   536 PWs)   bands (ev):

    -1.5674  -0.7976   1.1708   1.7329   4.6786   4.7534   5.5055   5.5632
     5.7508   5.8767   6.5616   7.8666   9.1767   9.9015  12.3188  14.2532
    15.5603  16.5906  22.7716  23.3782  23.5191  24.1850  24.6563  25.0076
    27.2418  27.9163

     highest occupied level (ev):    28.5293

!    total energy              =    -427.33088419 Ry
     Harris-Foulkes estimate   =    -427.33088419 Ry
     estimated scf accuracy    <          5.1E-13 Ry

     The total energy is the sum of the following terms:

     one-electron contribution =      34.47687317 Ry
     hartree contribution      =      50.93246376 Ry
     xc contribution           =    -120.92295403 Ry
     ewald contribution        =    -391.81726709 Ry

     convergence has been achieved in  12 iterations

     Forces acting on atoms (cartesian axes, Ry/au):

     atom    1 type  1   force =     0.09574430    0.09574430    0.00000000
     atom    2 type  1   force =     0.01178891    0.01178891    0.00000000
     atom    3 type  2   force =    -0.00176958   -0.07034021    0.00000000
     atom    4 type  2   force =    -0.07034021   -0.00176958    0.00000000
     atom    5 type  2   force =    -0.10615788   -0.10615788    0.00000000
     atom    6 type  2   force =     0.07073446    0.07073446    0.00000000

     Total force =     0.247102     Total SCF correction =     0.000003


     Computing stress (Cartesian axis) and pressure

          total   stress  (Ry/bohr**3)                   (kbar)     P=********
  -0.09751354   0.00951164   0.00000000     -14344.73   1399.21      0.00
   0.00951164  -0.09751354   0.00000000       1399.21 -14344.73      0.00
   0.00000000   0.00000000  -0.09086070          0.00      0.00 -13366.07


     Writing output data file SnO2.save
 
     init_run     :      0.48s CPU      1.01s WALL (       2 calls)
     electrons    :    114.76s CPU    121.27s WALL (      39 calls)
     update_pot   :     11.78s CPU     12.28s WALL (      37 calls)
     forces       :      7.83s CPU      7.97s WALL (      39 calls)
     stress       :     16.81s CPU     17.12s WALL (      39 calls)

     Called by init_run:
     wfcinit      :      0.14s CPU      0.55s WALL (       2 calls)
     potinit      :      0.11s CPU      0.19s WALL (       2 calls)
     hinit0       :      0.22s CPU      0.26s WALL (       2 calls)

     Called by electrons:
     c_bands      :    100.98s CPU    105.35s WALL (     400 calls)
     sum_band     :     11.44s CPU     11.90s WALL (     400 calls)
     v_of_rho     :      2.10s CPU      2.15s WALL (     431 calls)
     mix_rho      :      0.35s CPU      0.36s WALL (     400 calls)

     Called by c_bands:
     init_us_2    :      1.04s CPU      1.72s WALL (    5280 calls)
     cegterg      :     93.13s CPU     96.85s WALL (    2409 calls)

     Called by sum_band:

     Called by *egterg:
     h_psi        :     68.79s CPU     72.59s WALL (    9023 calls)
     g_psi        :      0.50s CPU      0.83s WALL (    6602 calls)
     cdiaghg      :     12.38s CPU     12.63s WALL (    8732 calls)

     Called by h_psi:
     h_psi:pot    :     68.58s CPU     72.26s WALL (    9023 calls)
     h_psi:calbec :      5.08s CPU      4.78s WALL (    9023 calls)
     vloc_psi     :     61.96s CPU     63.01s WALL (    9023 calls)
     add_vuspsi   :      1.53s CPU      4.45s WALL (    9023 calls)

     General routines
     calbec       :      6.04s CPU      5.47s WALL (   10193 calls)
     fft          :      1.37s CPU      1.26s WALL (    5330 calls)
     ffts         :      0.09s CPU      0.10s WALL (     400 calls)
     fftw         :     71.48s CPU     68.66s WALL (  437030 calls)
 
     Parallel routines
     fft_scatt_xy :      1.15s CPU      5.90s WALL (  442760 calls)
     fft_scatt_yz :     60.27s CPU     10.17s WALL (  442760 calls)
 
     PWSCF        :  2m32.43s CPU     2m47.65s WALL

 
   This run was terminated on:  12:21:59  21Apr2018            

=------------------------------------------------------------------------------=
   JOB DONE.
=------------------------------------------------------------------------------=
