
     Program PWSCF v.6.2.2 starts on  8Apr2018 at  1:27:31 

     This program is part of the open-source Quantum ESPRESSO suite
     for quantum simulation of materials; please cite
         "P. Giannozzi et al., J. Phys.:Condens. Matter 21 395502 (2009);
         "P. Giannozzi et al., J. Phys.:Condens. Matter 29 465901 (2017);
          URL http://www.quantum-espresso.org", 
     in publications or presentations arising from this work. More details at
     http://www.quantum-espresso.org/quote

     Parallel version (MPI), running on     2 processors

     MPI processes distributed on     1 nodes
     R & G space division:  proc/nbgrp/npool/nimage =       2
     Reading input from Conv_acell-kp.in
Warning: card &IONS ignored
Warning: card / ignored
Warning: card &CELL ignored
Warning: card / ignored

     Current dimensions of program PWSCF are:
     Max number of different atomic species (ntypx) = 10
     Max number of k-points (npk) =  40000
     Max angular momentum in pseudopotentials (lmaxx) =  3

     Subspace diagonalization in iterative solution of the eigenvalue problem:
     a serial algorithm will be used

 
     Parallelization info
     --------------------
     sticks:   dense  smooth     PW     G-vecs:    dense   smooth      PW
     Min         200     200     68                 2007     2007     408
     Max         201     201     69                 2008     2008     409
     Sum         401     401    137                 4015     4015     817
 


     bravais-lattice index     =            6
     lattice parameter (alat)  =       9.1100  a.u.
     unit-cell volume          =     506.5589 (a.u.)^3
     number of atoms/cell      =            6
     number of atomic types    =            2
     number of electrons       =        52.00
     number of Kohn-Sham states=           26
     kinetic-energy cutoff     =      15.0000  Ry
     charge density cutoff     =      60.0000  Ry
     convergence threshold     =      1.0E-12
     mixing beta               =       0.7000
     number of iterations used =            8  plain     mixing
     Exchange-correlation      = PBE ( 1  4  3  4 0 0)

     celldm(1)=   9.110000  celldm(2)=   0.000000  celldm(3)=   0.670000
     celldm(4)=   0.000000  celldm(5)=   0.000000  celldm(6)=   0.000000

     crystal axes: (cart. coord. in units of alat)
               a(1) = (   1.000000   0.000000   0.000000 )  
               a(2) = (   0.000000   1.000000   0.000000 )  
               a(3) = (   0.000000   0.000000   0.670000 )  

     reciprocal axes: (cart. coord. in units 2 pi/alat)
               b(1) = (  1.000000  0.000000  0.000000 )  
               b(2) = (  0.000000  1.000000  0.000000 )  
               b(3) = (  0.000000  0.000000  1.492537 )  


     PseudoPot. # 1 for Sn read from file:
     ../../Pseudo_potentials/Sn_PBE.upf
     MD5 check sum: 78e6386ae56e929f0568ae8bf606a80c
     Pseudo is Norm-conserving + core correction, Zval = 14.0
     Generated using ONCVPSP code by D. R. Hamann
     Using radial grid of 1628 points,  6 beta functions with: 
                l(1) =   0
                l(2) =   0
                l(3) =   1
                l(4) =   1
                l(5) =   2
                l(6) =   2

     PseudoPot. # 2 for O  read from file:
     ../../Pseudo_potentials/O_PBE.upf
     MD5 check sum: 3e3f909f7470e8921608ab6b1f57bbae
     Pseudo is Norm-conserving + core correction, Zval =  6.0
     Generated using ONCVPSP code by D. R. Hamann
     Using radial grid of  936 points,  5 beta functions with: 
                l(1) =   0
                l(2) =   0
                l(3) =   1
                l(4) =   1
                l(5) =   2

     atomic species   valence    mass     pseudopotential
        Sn            14.00   118.71000     Sn( 1.00)
        O              6.00    15.99900     O ( 1.00)

      4 Sym. Ops. (no inversion) found



   Cartesian axes

     site n.     atom                  positions (alat units)
         1           Sn  tau(   1) = (   0.0000000   0.0000000   0.0000000  )
         2           Sn  tau(   2) = (   0.5000000   0.5000000   0.3350000  )
         3           O   tau(   3) = (   0.8060000   0.1930000   0.3350000  )
         4           O   tau(   4) = (   0.1930000   0.8060000   0.3350000  )
         5           O   tau(   5) = (   0.3060000   0.3060000   0.0000000  )
         6           O   tau(   6) = (   0.6930000   0.6930000   0.0000000  )

     number of k points=  2562

     Number of k-points >= 100: set verbosity='high' to print them.

     Dense  grid:     4015 G-vectors     FFT dimensions: (  24,  24,  15)

     Estimated max dynamical RAM per process >     256.84 MB

     Estimated total dynamical RAM >     513.68 MB

     Check: negative/imaginary core charge=   -0.005277    0.000000

     Initial potential from superposition of free atoms
     Check: negative starting charge=   -0.053732

     starting charge   51.99690, renormalised to   52.00000

     negative rho (up, down):  5.373E-02 0.000E+00
     Starting wfc are   34 randomized atomic wfcs

     total cpu time spent up to now is       44.0 secs

     Self-consistent Calculation

     iteration #  1     ecut=    15.00 Ry     beta= 0.70
     Davidson diagonalization with overlap
     ethr =  1.00E-02,  avg # of iterations =  3.0

     negative rho (up, down):  1.590E-02 0.000E+00

     total cpu time spent up to now is      169.5 secs

     total energy              =    -393.36889719 Ry
     Harris-Foulkes estimate   =    -412.17824805 Ry
     estimated scf accuracy    <      24.23724552 Ry

     iteration #  2     ecut=    15.00 Ry     beta= 0.70
     Davidson diagonalization with overlap
     ethr =  1.00E-02,  avg # of iterations =  3.2

     negative rho (up, down):  4.813E-03 0.000E+00

     total cpu time spent up to now is      321.6 secs

     total energy              =    -398.11712673 Ry
     Harris-Foulkes estimate   =    -400.46210787 Ry
     estimated scf accuracy    <       3.77148839 Ry

     iteration #  3     ecut=    15.00 Ry     beta= 0.70
     Davidson diagonalization with overlap
     ethr =  7.25E-03,  avg # of iterations =  3.4

     negative rho (up, down):  9.907E-04 0.000E+00

     total cpu time spent up to now is      461.8 secs

     total energy              =    -398.95514870 Ry
     Harris-Foulkes estimate   =    -399.39144933 Ry
     estimated scf accuracy    <       0.79441115 Ry

     iteration #  4     ecut=    15.00 Ry     beta= 0.70
     Davidson diagonalization with overlap
     ethr =  1.53E-03,  avg # of iterations =  2.6

     total cpu time spent up to now is      580.6 secs

     total energy              =    -399.12167084 Ry
     Harris-Foulkes estimate   =    -399.13611937 Ry
     estimated scf accuracy    <       0.03308708 Ry

     iteration #  5     ecut=    15.00 Ry     beta= 0.70
     Davidson diagonalization with overlap
     ethr =  6.36E-05,  avg # of iterations =  2.7

     total cpu time spent up to now is      687.4 secs

     total energy              =    -399.12790234 Ry
     Harris-Foulkes estimate   =    -399.12812047 Ry
     estimated scf accuracy    <       0.00065480 Ry

     iteration #  6     ecut=    15.00 Ry     beta= 0.70
     Davidson diagonalization with overlap
     ethr =  1.26E-06,  avg # of iterations =  4.0

     total cpu time spent up to now is      843.3 secs

     total energy              =    -399.12805237 Ry
     Harris-Foulkes estimate   =    -399.12857270 Ry
     estimated scf accuracy    <       0.00125070 Ry

     iteration #  7     ecut=    15.00 Ry     beta= 0.70
     Davidson diagonalization with overlap
     ethr =  1.26E-06,  avg # of iterations =  3.7

     total cpu time spent up to now is      965.7 secs

     total energy              =    -399.12831389 Ry
     Harris-Foulkes estimate   =    -399.12835787 Ry
     estimated scf accuracy    <       0.00013263 Ry

     iteration #  8     ecut=    15.00 Ry     beta= 0.70
     Davidson diagonalization with overlap
     ethr =  2.55E-07,  avg # of iterations =  3.4

     total cpu time spent up to now is     1074.8 secs

     total energy              =    -399.12833169 Ry
     Harris-Foulkes estimate   =    -399.12833410 Ry
     estimated scf accuracy    <       0.00000407 Ry

     iteration #  9     ecut=    15.00 Ry     beta= 0.70
     Davidson diagonalization with overlap
     ethr =  7.83E-09,  avg # of iterations =  3.2

     total cpu time spent up to now is     1199.2 secs

     total energy              =    -399.12833510 Ry
     Harris-Foulkes estimate   =    -399.12833549 Ry
     estimated scf accuracy    <       0.00000069 Ry

     iteration # 10     ecut=    15.00 Ry     beta= 0.70
     Davidson diagonalization with overlap
     ethr =  1.32E-09,  avg # of iterations =  3.3

     total cpu time spent up to now is     1315.4 secs

     total energy              =    -399.12833519 Ry
     Harris-Foulkes estimate   =    -399.12833526 Ry
     estimated scf accuracy    <       0.00000012 Ry

     iteration # 11     ecut=    15.00 Ry     beta= 0.70
     Davidson diagonalization with overlap
     ethr =  2.35E-10,  avg # of iterations =  3.3

     total cpu time spent up to now is     1432.6 secs

     total energy              =    -399.12833574 Ry
     Harris-Foulkes estimate   =    -399.12833576 Ry
     estimated scf accuracy    <       0.00000006 Ry

     iteration # 12     ecut=    15.00 Ry     beta= 0.70
     Davidson diagonalization with overlap
     ethr =  1.12E-10,  avg # of iterations =  3.0

     total cpu time spent up to now is     1532.4 secs

     total energy              =    -399.12833574 Ry
     Harris-Foulkes estimate   =    -399.12833574 Ry
     estimated scf accuracy    <          5.6E-09 Ry

     iteration # 13     ecut=    15.00 Ry     beta= 0.70
     Davidson diagonalization with overlap
     ethr =  1.08E-11,  avg # of iterations =  3.9

     total cpu time spent up to now is     1650.5 secs

     total energy              =    -399.12833574 Ry
     Harris-Foulkes estimate   =    -399.12833574 Ry
     estimated scf accuracy    <          3.1E-10 Ry

     iteration # 14     ecut=    15.00 Ry     beta= 0.70
     Davidson diagonalization with overlap
     ethr =  5.97E-13,  avg # of iterations =  3.6

     total cpu time spent up to now is     1783.2 secs

     total energy              =    -399.12833574 Ry
     Harris-Foulkes estimate   =    -399.12833574 Ry
     estimated scf accuracy    <          1.0E-11 Ry

     iteration # 15     ecut=    15.00 Ry     beta= 0.70
     Davidson diagonalization with overlap
     ethr =  1.00E-13,  avg # of iterations =  1.4

     total cpu time spent up to now is     1861.6 secs

     total energy              =    -399.12833574 Ry
     Harris-Foulkes estimate   =    -399.12833574 Ry
     estimated scf accuracy    <          1.2E-12 Ry

     iteration # 16     ecut=    15.00 Ry     beta= 0.70
     Davidson diagonalization with overlap
     ethr =  1.00E-13,  avg # of iterations =  1.2

     total cpu time spent up to now is     1938.1 secs

     End of self-consistent calculation

     Number of k-points >= 100: set verbosity='high' to print the bands.

     highest occupied level (ev):    13.2866

!    total energy              =    -399.12833574 Ry
     Harris-Foulkes estimate   =    -399.12833574 Ry
     estimated scf accuracy    <          1.2E-13 Ry

     The total energy is the sum of the following terms:

     one-electron contribution =     -51.26276880 Ry
     hartree contribution      =      63.88200054 Ry
     xc contribution           =    -109.26623147 Ry
     ewald contribution        =    -302.48133600 Ry

     convergence has been achieved in  16 iterations

     Writing output data file SnO2.save
 
     init_run     :     36.39s CPU     43.26s WALL (       1 calls)
     electrons    :   1837.21s CPU   1894.10s WALL (       1 calls)

     Called by init_run:
     wfcinit      :     36.22s CPU     42.91s WALL (       1 calls)
     potinit      :      0.02s CPU      0.04s WALL (       1 calls)
     hinit0       :      0.14s CPU      0.29s WALL (       1 calls)

     Called by electrons:
     c_bands      :   1692.00s CPU   1742.22s WALL (      16 calls)
     sum_band     :    145.09s CPU    151.74s WALL (      16 calls)
     v_of_rho     :      0.09s CPU      0.10s WALL (      17 calls)
     mix_rho      :      0.03s CPU      0.03s WALL (      16 calls)

     Called by c_bands:
     init_us_2    :     11.66s CPU     20.37s WALL (   84546 calls)
     cegterg      :   1580.49s CPU   1624.11s WALL (   40992 calls)

     Called by sum_band:

     Called by *egterg:
     h_psi        :    895.75s CPU    952.05s WALL (  169373 calls)
     g_psi        :      3.42s CPU      6.11s WALL (  125819 calls)
     cdiaghg      :    503.73s CPU    499.48s WALL (  166811 calls)

     Called by h_psi:
     h_psi:pot    :    892.67s CPU    947.37s WALL (  169373 calls)
     h_psi:calbec :     89.48s CPU     90.80s WALL (  169373 calls)
     vloc_psi     :    750.78s CPU    753.82s WALL (  169373 calls)
     add_vuspsi   :     52.12s CPU    101.89s WALL (  169373 calls)

     General routines
     calbec       :     89.42s CPU     90.35s WALL (  169373 calls)
     fft          :      0.04s CPU      0.05s WALL (     171 calls)
     ffts         :      0.00s CPU      0.22s WALL (      16 calls)
     fftw         :    879.25s CPU    818.41s WALL ( 6900616 calls)
 
     Parallel routines
     fft_scatt_xy :     13.19s CPU     88.32s WALL ( 6900803 calls)
     fft_scatt_yz :    771.99s CPU    182.88s WALL ( 6900803 calls)
 
     PWSCF        : 31m17.59s CPU    32m34.04s WALL

 
   This run was terminated on:   2: 0: 5   8Apr2018            

=------------------------------------------------------------------------------=
   JOB DONE.
=------------------------------------------------------------------------------=
