
     Program PWSCF v.6.2.2 starts on  7Apr2018 at 23:43: 0 

     This program is part of the open-source Quantum ESPRESSO suite
     for quantum simulation of materials; please cite
         "P. Giannozzi et al., J. Phys.:Condens. Matter 21 395502 (2009);
         "P. Giannozzi et al., J. Phys.:Condens. Matter 29 465901 (2017);
          URL http://www.quantum-espresso.org", 
     in publications or presentations arising from this work. More details at
     http://www.quantum-espresso.org/quote

     Parallel version (MPI), running on     2 processors

     MPI processes distributed on     1 nodes
     R & G space division:  proc/nbgrp/npool/nimage =       2
     Reading input from Conv_acell-kp.in
Warning: card &IONS ignored
Warning: card / ignored
Warning: card &CELL ignored
Warning: card / ignored

     Current dimensions of program PWSCF are:
     Max number of different atomic species (ntypx) = 10
     Max number of k-points (npk) =  40000
     Max angular momentum in pseudopotentials (lmaxx) =  3

     Subspace diagonalization in iterative solution of the eigenvalue problem:
     a serial algorithm will be used

 
     Parallelization info
     --------------------
     sticks:   dense  smooth     PW     G-vecs:    dense   smooth      PW
     Min         200     200     60                 2007     2007     352
     Max         201     201     61                 2008     2008     353
     Sum         401     401    121                 4015     4015     705
 


     bravais-lattice index     =            6
     lattice parameter (alat)  =       9.1100  a.u.
     unit-cell volume          =     506.5589 (a.u.)^3
     number of atoms/cell      =            6
     number of atomic types    =            2
     number of electrons       =        52.00
     number of Kohn-Sham states=           26
     kinetic-energy cutoff     =      15.0000  Ry
     charge density cutoff     =      60.0000  Ry
     convergence threshold     =      1.0E-12
     mixing beta               =       0.7000
     number of iterations used =            8  plain     mixing
     Exchange-correlation      = PBE ( 1  4  3  4 0 0)

     celldm(1)=   9.110000  celldm(2)=   0.000000  celldm(3)=   0.670000
     celldm(4)=   0.000000  celldm(5)=   0.000000  celldm(6)=   0.000000

     crystal axes: (cart. coord. in units of alat)
               a(1) = (   1.000000   0.000000   0.000000 )  
               a(2) = (   0.000000   1.000000   0.000000 )  
               a(3) = (   0.000000   0.000000   0.670000 )  

     reciprocal axes: (cart. coord. in units 2 pi/alat)
               b(1) = (  1.000000  0.000000  0.000000 )  
               b(2) = (  0.000000  1.000000  0.000000 )  
               b(3) = (  0.000000  0.000000  1.492537 )  


     PseudoPot. # 1 for Sn read from file:
     ../../Pseudo_potentials/Sn_PBE.upf
     MD5 check sum: 78e6386ae56e929f0568ae8bf606a80c
     Pseudo is Norm-conserving + core correction, Zval = 14.0
     Generated using ONCVPSP code by D. R. Hamann
     Using radial grid of 1628 points,  6 beta functions with: 
                l(1) =   0
                l(2) =   0
                l(3) =   1
                l(4) =   1
                l(5) =   2
                l(6) =   2

     PseudoPot. # 2 for O  read from file:
     ../../Pseudo_potentials/O_PBE.upf
     MD5 check sum: 3e3f909f7470e8921608ab6b1f57bbae
     Pseudo is Norm-conserving + core correction, Zval =  6.0
     Generated using ONCVPSP code by D. R. Hamann
     Using radial grid of  936 points,  5 beta functions with: 
                l(1) =   0
                l(2) =   0
                l(3) =   1
                l(4) =   1
                l(5) =   2

     atomic species   valence    mass     pseudopotential
        Sn            14.00   118.71000     Sn( 1.00)
        O              6.00    15.99900     O ( 1.00)

      4 Sym. Ops. (no inversion) found



   Cartesian axes

     site n.     atom                  positions (alat units)
         1           Sn  tau(   1) = (   0.0000000   0.0000000   0.0000000  )
         2           Sn  tau(   2) = (   0.5000000   0.5000000   0.3350000  )
         3           O   tau(   3) = (   0.8060000   0.1930000   0.3350000  )
         4           O   tau(   4) = (   0.1930000   0.8060000   0.3350000  )
         5           O   tau(   5) = (   0.3060000   0.3060000   0.0000000  )
         6           O   tau(   6) = (   0.6930000   0.6930000   0.0000000  )

     number of k points=     8
                       cart. coord. in units 2pi/alat
        k(    1) = (   0.0000000   0.0000000   0.0000000), wk =   0.0740741
        k(    2) = (   0.0000000   0.0000000   0.4975124), wk =   0.1481481
        k(    3) = (   0.0000000   0.3333333   0.0000000), wk =   0.2962963
        k(    4) = (   0.0000000   0.3333333   0.4975124), wk =   0.5925926
        k(    5) = (   0.3333333   0.3333333   0.0000000), wk =   0.1481481
        k(    6) = (   0.3333333   0.3333333   0.4975124), wk =   0.2962963
        k(    7) = (   0.3333333  -0.3333333   0.0000000), wk =   0.1481481
        k(    8) = (   0.3333333  -0.3333333   0.4975124), wk =   0.2962963

     Dense  grid:     4015 G-vectors     FFT dimensions: (  24,  24,  15)

     Estimated max dynamical RAM per process >       5.55 MB

     Estimated total dynamical RAM >      11.11 MB

     Check: negative/imaginary core charge=   -0.005277    0.000000

     Initial potential from superposition of free atoms
     Check: negative starting charge=   -0.053732

     starting charge   51.99690, renormalised to   52.00000

     negative rho (up, down):  5.373E-02 0.000E+00
     Starting wfc are   34 randomized atomic wfcs

     total cpu time spent up to now is        1.1 secs

     Self-consistent Calculation

     iteration #  1     ecut=    15.00 Ry     beta= 0.70
     Davidson diagonalization with overlap
     ethr =  1.00E-02,  avg # of iterations =  3.5

     negative rho (up, down):  1.591E-02 0.000E+00

     total cpu time spent up to now is        2.0 secs

     total energy              =    -393.25989272 Ry
     Harris-Foulkes estimate   =    -412.14524741 Ry
     estimated scf accuracy    <      24.32099668 Ry

     iteration #  2     ecut=    15.00 Ry     beta= 0.70
     Davidson diagonalization with overlap
     ethr =  1.00E-02,  avg # of iterations =  3.5

     negative rho (up, down):  4.843E-03 0.000E+00

     total cpu time spent up to now is        3.0 secs

     total energy              =    -397.98879659 Ry
     Harris-Foulkes estimate   =    -400.46616483 Ry
     estimated scf accuracy    <       3.98230807 Ry

     iteration #  3     ecut=    15.00 Ry     beta= 0.70
     Davidson diagonalization with overlap
     ethr =  7.66E-03,  avg # of iterations =  4.1

     negative rho (up, down):  1.067E-03 0.000E+00

     total cpu time spent up to now is        3.9 secs

     total energy              =    -398.92474104 Ry
     Harris-Foulkes estimate   =    -399.40527267 Ry
     estimated scf accuracy    <       0.89366061 Ry

     iteration #  4     ecut=    15.00 Ry     beta= 0.70
     Davidson diagonalization with overlap
     ethr =  1.72E-03,  avg # of iterations =  2.6

     total cpu time spent up to now is        4.6 secs

     total energy              =    -399.10233575 Ry
     Harris-Foulkes estimate   =    -399.11362709 Ry
     estimated scf accuracy    <       0.02984010 Ry

     iteration #  5     ecut=    15.00 Ry     beta= 0.70
     Davidson diagonalization with overlap
     ethr =  5.74E-05,  avg # of iterations =  3.0

     total cpu time spent up to now is        5.3 secs

     total energy              =    -399.10623142 Ry
     Harris-Foulkes estimate   =    -399.10660345 Ry
     estimated scf accuracy    <       0.00089716 Ry

     iteration #  6     ecut=    15.00 Ry     beta= 0.70
     Davidson diagonalization with overlap
     ethr =  1.73E-06,  avg # of iterations =  4.2

     total cpu time spent up to now is        6.2 secs

     total energy              =    -399.10952293 Ry
     Harris-Foulkes estimate   =    -399.11116245 Ry
     estimated scf accuracy    <       0.00636509 Ry

     iteration #  7     ecut=    15.00 Ry     beta= 0.70
     Davidson diagonalization with overlap
     ethr =  1.73E-06,  avg # of iterations =  4.0

     total cpu time spent up to now is        7.0 secs

     total energy              =    -399.11012388 Ry
     Harris-Foulkes estimate   =    -399.11021215 Ry
     estimated scf accuracy    <       0.00022711 Ry

     iteration #  8     ecut=    15.00 Ry     beta= 0.70
     Davidson diagonalization with overlap
     ethr =  4.37E-07,  avg # of iterations =  2.2

     total cpu time spent up to now is        7.6 secs

     total energy              =    -399.11011527 Ry
     Harris-Foulkes estimate   =    -399.11014350 Ry
     estimated scf accuracy    <       0.00006100 Ry

     iteration #  9     ecut=    15.00 Ry     beta= 0.70
     Davidson diagonalization with overlap
     ethr =  1.17E-07,  avg # of iterations =  3.9

     total cpu time spent up to now is        8.5 secs

     total energy              =    -399.11011701 Ry
     Harris-Foulkes estimate   =    -399.11014061 Ry
     estimated scf accuracy    <       0.00005634 Ry

     iteration # 10     ecut=    15.00 Ry     beta= 0.70
     Davidson diagonalization with overlap
     ethr =  1.08E-07,  avg # of iterations =  3.2

     total cpu time spent up to now is        8.9 secs

     total energy              =    -399.11012743 Ry
     Harris-Foulkes estimate   =    -399.11012941 Ry
     estimated scf accuracy    <       0.00000497 Ry

     iteration # 11     ecut=    15.00 Ry     beta= 0.70
     Davidson diagonalization with overlap
     ethr =  9.56E-09,  avg # of iterations =  2.9

     total cpu time spent up to now is        9.2 secs

     total energy              =    -399.11012826 Ry
     Harris-Foulkes estimate   =    -399.11012831 Ry
     estimated scf accuracy    <       0.00000008 Ry

     iteration # 12     ecut=    15.00 Ry     beta= 0.70
     Davidson diagonalization with overlap
     ethr =  1.51E-10,  avg # of iterations =  3.6

     total cpu time spent up to now is        9.6 secs

     total energy              =    -399.11012828 Ry
     Harris-Foulkes estimate   =    -399.11012828 Ry
     estimated scf accuracy    <          2.4E-09 Ry

     iteration # 13     ecut=    15.00 Ry     beta= 0.70
     Davidson diagonalization with overlap
     ethr =  4.62E-12,  avg # of iterations =  2.5

     total cpu time spent up to now is       10.0 secs

     total energy              =    -399.11012827 Ry
     Harris-Foulkes estimate   =    -399.11012828 Ry
     estimated scf accuracy    <          4.8E-10 Ry

     iteration # 14     ecut=    15.00 Ry     beta= 0.70
     Davidson diagonalization with overlap
     ethr =  9.28E-13,  avg # of iterations =  3.2

     total cpu time spent up to now is       10.4 secs

     total energy              =    -399.11012827 Ry
     Harris-Foulkes estimate   =    -399.11012827 Ry
     estimated scf accuracy    <          6.2E-11 Ry

     iteration # 15     ecut=    15.00 Ry     beta= 0.70
     Davidson diagonalization with overlap
     ethr =  1.20E-13,  avg # of iterations =  2.9

     total cpu time spent up to now is       10.7 secs

     total energy              =    -399.11012827 Ry
     Harris-Foulkes estimate   =    -399.11012827 Ry
     estimated scf accuracy    <          2.5E-12 Ry

     iteration # 16     ecut=    15.00 Ry     beta= 0.70
     Davidson diagonalization with overlap
     ethr =  1.00E-13,  avg # of iterations =  1.0

     total cpu time spent up to now is       11.0 secs

     End of self-consistent calculation

          k = 0.0000 0.0000 0.0000 (   503 PWs)   bands (ev):

   -14.7911 -14.1970 -13.7283 -13.6706  -3.9084  -3.8546  -3.7366  -3.7021
    -3.2917  -3.1952  -2.4437  -2.3729  -2.3581  -1.4366   0.0850   4.7364
     6.3328   6.3524   6.3937   8.4916   8.8423  10.5821  10.5895  11.3454
    12.0007  12.0088

          k = 0.0000 0.0000 0.4975 (   496 PWs)   bands (ev):

   -14.3580 -14.0139 -13.9088 -13.8507  -3.8097  -3.4379  -2.6761  -2.3482
    -2.3152  -2.2511  -1.9876  -1.9748  -1.8344  -1.4085   0.0020   1.9364
     6.7110   6.7397   6.9597   8.2786   8.9013   8.9120   9.2555  10.4276
    10.8399  10.8571

          k = 0.0000 0.3333 0.0000 (   495 PWs)   bands (ev):

   -14.5928 -14.2359 -13.8363 -13.7557  -3.5935  -3.5491  -3.4052  -3.3384
    -2.7037  -2.1908  -2.0231  -1.8390  -1.5211  -1.4299   0.7368   2.5936
     7.0407   7.2330   7.6184   8.0622   9.2196  10.6647  10.8986  11.2112
    11.5982  11.9307

          k = 0.0000 0.3333 0.4975 (   498 PWs)   bands (ev):

   -14.2452 -14.0239 -13.9943 -13.9327  -3.7781  -3.6742  -3.2925  -3.0997
    -2.4834  -2.4051  -1.7715  -1.7594  -1.5980  -0.9052   0.6431   1.7022
     5.0822   5.4780   6.8038   7.1862   9.4579  10.0531  10.5211  10.5549
    11.0739  12.8450

          k = 0.3333 0.3333 0.0000 (   498 PWs)   bands (ev):

   -14.5304 -14.3081 -13.7773 -13.7581  -3.9271  -3.8426  -3.6922  -3.2848
    -2.7108  -2.3372  -2.2861  -1.9806  -1.7497  -1.7409   1.6753   2.8572
     6.4239   7.2093   7.2462   7.8350   8.7255   9.5445  10.8914  10.9608
    11.6571  12.3796

          k = 0.3333 0.3333 0.4975 (   497 PWs)   bands (ev):

   -14.2167 -14.0755 -13.9533 -13.9402  -3.9055  -3.5539  -3.2168  -2.7818
    -2.2682  -2.0465  -1.8419  -1.8004  -1.5599  -1.2829   0.7809   1.2350
     5.5432   6.5284   6.5798   7.8781   8.1346  10.0212  10.3492  10.8259
    11.1779  12.0463

          k = 0.3333-0.3333 0.0000 (   498 PWs)   bands (ev):

   -14.5000 -14.3455 -13.8275 -13.7006  -3.9638  -3.8330  -3.6597  -3.3001
    -2.6931  -2.3436  -2.2799  -1.9638  -1.7634  -1.7523   1.6608   2.8682
     6.4377   7.2253   7.2491   7.8193   8.7269   9.5306  10.8974  10.9543
    11.6102  12.4268

          k = 0.3333-0.3333 0.4975 (   497 PWs)   bands (ev):

   -14.1770 -14.1304 -13.9823 -13.8955  -3.8963  -3.5616  -3.2003  -2.8104
    -2.2731  -2.0466  -1.8429  -1.8039  -1.5486  -1.2734   0.7650   1.2465
     5.5187   6.5470   6.5732   7.8885   8.1522  10.0250  10.3499  10.8373
    11.1626  12.0288

     highest occupied level (ev):    12.8450

!    total energy              =    -399.11012828 Ry
     Harris-Foulkes estimate   =    -399.11012827 Ry
     estimated scf accuracy    <          3.5E-13 Ry

     The total energy is the sum of the following terms:

     one-electron contribution =     -51.34148456 Ry
     hartree contribution      =      64.00872455 Ry
     xc contribution           =    -109.29603226 Ry
     ewald contribution        =    -302.48133600 Ry

     convergence has been achieved in  16 iterations

     Writing output data file SnO2.save
 
     init_run     :      0.19s CPU      0.38s WALL (       1 calls)
     electrons    :      5.90s CPU      9.83s WALL (       1 calls)

     Called by init_run:
     wfcinit      :      0.11s CPU      0.23s WALL (       1 calls)
     potinit      :      0.02s CPU      0.04s WALL (       1 calls)
     hinit0       :      0.05s CPU      0.10s WALL (       1 calls)

     Called by electrons:
     c_bands      :      5.34s CPU      8.91s WALL (      16 calls)
     sum_band     :      0.45s CPU      0.73s WALL (      16 calls)
     v_of_rho     :      0.09s CPU      0.14s WALL (      17 calls)
     mix_rho      :      0.02s CPU      0.04s WALL (      16 calls)

     Called by c_bands:
     init_us_2    :      0.04s CPU      0.06s WALL (     264 calls)
     cegterg      :      5.00s CPU      8.46s WALL (     128 calls)

     Called by sum_band:

     Called by *egterg:
     h_psi        :      2.69s CPU      4.71s WALL (     540 calls)
     g_psi        :      0.01s CPU      0.02s WALL (     404 calls)
     cdiaghg      :      1.67s CPU      2.90s WALL (     532 calls)

     Called by h_psi:
     h_psi:pot    :      2.69s CPU      4.70s WALL (     540 calls)
     h_psi:calbec :      0.29s CPU      0.35s WALL (     540 calls)
     vloc_psi     :      2.26s CPU      4.00s WALL (     540 calls)
     add_vuspsi   :      0.13s CPU      0.34s WALL (     540 calls)

     General routines
     calbec       :      0.29s CPU      0.35s WALL (     540 calls)
     fft          :      0.04s CPU      0.09s WALL (     171 calls)
     ffts         :      0.00s CPU      0.00s WALL (      16 calls)
     fftw         :      2.68s CPU      4.43s WALL (   22002 calls)
 
     Parallel routines
     fft_scatt_xy :      0.03s CPU      0.28s WALL (   22189 calls)
     fft_scatt_yz :      2.57s CPU      2.53s WALL (   22189 calls)
 
     PWSCF        :     6.48s CPU        11.17s WALL

 
   This run was terminated on:  23:43:11   7Apr2018            

=------------------------------------------------------------------------------=
   JOB DONE.
=------------------------------------------------------------------------------=
