
     Program PWSCF v.6.2.2 starts on  7Apr2018 at 23:42:40 

     This program is part of the open-source Quantum ESPRESSO suite
     for quantum simulation of materials; please cite
         "P. Giannozzi et al., J. Phys.:Condens. Matter 21 395502 (2009);
         "P. Giannozzi et al., J. Phys.:Condens. Matter 29 465901 (2017);
          URL http://www.quantum-espresso.org", 
     in publications or presentations arising from this work. More details at
     http://www.quantum-espresso.org/quote

     Parallel version (MPI), running on     2 processors

     MPI processes distributed on     1 nodes
     R & G space division:  proc/nbgrp/npool/nimage =       2
     Reading input from Conv_acell-kp.in
Warning: card &IONS ignored
Warning: card / ignored
Warning: card &CELL ignored
Warning: card / ignored

     Current dimensions of program PWSCF are:
     Max number of different atomic species (ntypx) = 10
     Max number of k-points (npk) =  40000
     Max angular momentum in pseudopotentials (lmaxx) =  3

     Subspace diagonalization in iterative solution of the eigenvalue problem:
     a serial algorithm will be used

 
     Parallelization info
     --------------------
     sticks:   dense  smooth     PW     G-vecs:    dense   smooth      PW
     Min         200     200     48                 2007     2007     250
     Max         201     201     49                 2008     2008     253
     Sum         401     401     97                 4015     4015     503
 


     bravais-lattice index     =            6
     lattice parameter (alat)  =       9.1100  a.u.
     unit-cell volume          =     506.5589 (a.u.)^3
     number of atoms/cell      =            6
     number of atomic types    =            2
     number of electrons       =        52.00
     number of Kohn-Sham states=           26
     kinetic-energy cutoff     =      15.0000  Ry
     charge density cutoff     =      60.0000  Ry
     convergence threshold     =      1.0E-12
     mixing beta               =       0.7000
     number of iterations used =            8  plain     mixing
     Exchange-correlation      = PBE ( 1  4  3  4 0 0)

     celldm(1)=   9.110000  celldm(2)=   0.000000  celldm(3)=   0.670000
     celldm(4)=   0.000000  celldm(5)=   0.000000  celldm(6)=   0.000000

     crystal axes: (cart. coord. in units of alat)
               a(1) = (   1.000000   0.000000   0.000000 )  
               a(2) = (   0.000000   1.000000   0.000000 )  
               a(3) = (   0.000000   0.000000   0.670000 )  

     reciprocal axes: (cart. coord. in units 2 pi/alat)
               b(1) = (  1.000000  0.000000  0.000000 )  
               b(2) = (  0.000000  1.000000  0.000000 )  
               b(3) = (  0.000000  0.000000  1.492537 )  


     PseudoPot. # 1 for Sn read from file:
     ../../Pseudo_potentials/Sn_PBE.upf
     MD5 check sum: 78e6386ae56e929f0568ae8bf606a80c
     Pseudo is Norm-conserving + core correction, Zval = 14.0
     Generated using ONCVPSP code by D. R. Hamann
     Using radial grid of 1628 points,  6 beta functions with: 
                l(1) =   0
                l(2) =   0
                l(3) =   1
                l(4) =   1
                l(5) =   2
                l(6) =   2

     PseudoPot. # 2 for O  read from file:
     ../../Pseudo_potentials/O_PBE.upf
     MD5 check sum: 3e3f909f7470e8921608ab6b1f57bbae
     Pseudo is Norm-conserving + core correction, Zval =  6.0
     Generated using ONCVPSP code by D. R. Hamann
     Using radial grid of  936 points,  5 beta functions with: 
                l(1) =   0
                l(2) =   0
                l(3) =   1
                l(4) =   1
                l(5) =   2

     atomic species   valence    mass     pseudopotential
        Sn            14.00   118.71000     Sn( 1.00)
        O              6.00    15.99900     O ( 1.00)

      4 Sym. Ops. (no inversion) found



   Cartesian axes

     site n.     atom                  positions (alat units)
         1           Sn  tau(   1) = (   0.0000000   0.0000000   0.0000000  )
         2           Sn  tau(   2) = (   0.5000000   0.5000000   0.3350000  )
         3           O   tau(   3) = (   0.8060000   0.1930000   0.3350000  )
         4           O   tau(   4) = (   0.1930000   0.8060000   0.3350000  )
         5           O   tau(   5) = (   0.3060000   0.3060000   0.0000000  )
         6           O   tau(   6) = (   0.6930000   0.6930000   0.0000000  )

     number of k points=     1
                       cart. coord. in units 2pi/alat
        k(    1) = (   0.0000000   0.0000000   0.0000000), wk =   2.0000000

     Dense  grid:     4015 G-vectors     FFT dimensions: (  24,  24,  15)

     Estimated max dynamical RAM per process >       4.77 MB

     Estimated total dynamical RAM >       9.53 MB

     Check: negative/imaginary core charge=   -0.005277    0.000000

     Initial potential from superposition of free atoms
     Check: negative starting charge=   -0.053732

     starting charge   51.99690, renormalised to   52.00000

     negative rho (up, down):  5.373E-02 0.000E+00
     Starting wfc are   34 randomized atomic wfcs

     total cpu time spent up to now is        0.5 secs

     Self-consistent Calculation

     iteration #  1     ecut=    15.00 Ry     beta= 0.70
     Davidson diagonalization with overlap
     ethr =  1.00E-02,  avg # of iterations =  3.0

     negative rho (up, down):  1.597E-02 0.000E+00

     total cpu time spent up to now is        0.5 secs

     total energy              =    -391.91662978 Ry
     Harris-Foulkes estimate   =    -412.46068228 Ry
     estimated scf accuracy    <      26.18983882 Ry

     iteration #  2     ecut=    15.00 Ry     beta= 0.70
     Davidson diagonalization with overlap
     ethr =  1.00E-02,  avg # of iterations =  5.0

     negative rho (up, down):  6.097E-03 0.000E+00

     total cpu time spent up to now is        0.6 secs

     total energy              =    -396.44011025 Ry
     Harris-Foulkes estimate   =    -401.32029203 Ry
     estimated scf accuracy    <       8.06844441 Ry

     iteration #  3     ecut=    15.00 Ry     beta= 0.70
     Davidson diagonalization with overlap
     ethr =  1.00E-02,  avg # of iterations =  4.0

     negative rho (up, down):  1.841E-03 0.000E+00

     total cpu time spent up to now is        0.7 secs

     total energy              =    -398.86658558 Ry
     Harris-Foulkes estimate   =    -399.75443230 Ry
     estimated scf accuracy    <       1.94098132 Ry

     iteration #  4     ecut=    15.00 Ry     beta= 0.70
     Davidson diagonalization with overlap
     ethr =  3.73E-03,  avg # of iterations =  2.0

     total cpu time spent up to now is        0.7 secs

     total energy              =    -399.02284347 Ry
     Harris-Foulkes estimate   =    -399.08261446 Ry
     estimated scf accuracy    <       0.16472222 Ry

     iteration #  5     ecut=    15.00 Ry     beta= 0.70
     Davidson diagonalization with overlap
     ethr =  3.17E-04,  avg # of iterations =  2.0

     total cpu time spent up to now is        0.8 secs

     total energy              =    -399.02943939 Ry
     Harris-Foulkes estimate   =    -399.04037739 Ry
     estimated scf accuracy    <       0.01586042 Ry

     iteration #  6     ecut=    15.00 Ry     beta= 0.70
     Davidson diagonalization with overlap
     ethr =  3.05E-05,  avg # of iterations =  5.0

     total cpu time spent up to now is        0.8 secs

     total energy              =    -399.22207085 Ry
     Harris-Foulkes estimate   =    -399.29551172 Ry
     estimated scf accuracy    <       0.72798167 Ry

     iteration #  7     ecut=    15.00 Ry     beta= 0.70
     Davidson diagonalization with overlap
     ethr =  3.05E-05,  avg # of iterations =  4.0

     total cpu time spent up to now is        0.9 secs

     total energy              =    -399.25531991 Ry
     Harris-Foulkes estimate   =    -399.22807027 Ry
     estimated scf accuracy    <       0.46380415 Ry

     iteration #  8     ecut=    15.00 Ry     beta= 0.70
     Davidson diagonalization with overlap
     ethr =  3.05E-05,  avg # of iterations =  1.0

     total cpu time spent up to now is        0.9 secs

     total energy              =    -399.08883515 Ry
     Harris-Foulkes estimate   =    -399.25563384 Ry
     estimated scf accuracy    <       0.52721419 Ry

     iteration #  9     ecut=    15.00 Ry     beta= 0.70
     Davidson diagonalization with overlap
     ethr =  3.05E-05,  avg # of iterations =  7.0

     total cpu time spent up to now is        1.0 secs

     total energy              =    -399.29608253 Ry
     Harris-Foulkes estimate   =    -399.36742777 Ry
     estimated scf accuracy    <       1.01365181 Ry

     iteration # 10     ecut=    15.00 Ry     beta= 0.70
     Davidson diagonalization with overlap
     ethr =  3.05E-05,  avg # of iterations =  4.0

     total cpu time spent up to now is        1.1 secs

     total energy              =    -399.28288857 Ry
     Harris-Foulkes estimate   =    -399.30069430 Ry
     estimated scf accuracy    <       0.75378437 Ry

     iteration # 11     ecut=    15.00 Ry     beta= 0.70
     Davidson diagonalization with overlap
     ethr =  3.05E-05,  avg # of iterations =  3.0

     total cpu time spent up to now is        1.1 secs

     total energy              =    -399.21262644 Ry
     Harris-Foulkes estimate   =    -399.28610847 Ry
     estimated scf accuracy    <       0.65521988 Ry

     iteration # 12     ecut=    15.00 Ry     beta= 0.70
     Davidson diagonalization with overlap
     ethr =  3.05E-05,  avg # of iterations =  3.0

     total cpu time spent up to now is        1.2 secs

     total energy              =    -399.06376121 Ry
     Harris-Foulkes estimate   =    -399.21618875 Ry
     estimated scf accuracy    <       0.46799368 Ry

     iteration # 13     ecut=    15.00 Ry     beta= 0.70
     Davidson diagonalization with overlap
     ethr =  3.05E-05,  avg # of iterations =  7.0

     total cpu time spent up to now is        1.3 secs

     total energy              =    -399.14230512 Ry
     Harris-Foulkes estimate   =    -399.10921858 Ry
     estimated scf accuracy    <       0.80951303 Ry

     iteration # 14     ecut=    15.00 Ry     beta= 0.70
     Davidson diagonalization with overlap
     ethr =  3.05E-05,  avg # of iterations =  3.0

     total cpu time spent up to now is        1.3 secs

     total energy              =    -399.18159328 Ry
     Harris-Foulkes estimate   =    -399.14323856 Ry
     estimated scf accuracy    <       0.91815480 Ry

     iteration # 15     ecut=    15.00 Ry     beta= 0.70
     Davidson diagonalization with overlap
     ethr =  3.05E-05,  avg # of iterations =  3.0

     total cpu time spent up to now is        1.4 secs

     total energy              =    -399.48632254 Ry
     Harris-Foulkes estimate   =    -399.18269156 Ry
     estimated scf accuracy    <       1.03815024 Ry

     iteration # 16     ecut=    15.00 Ry     beta= 0.70
     Davidson diagonalization with overlap
     ethr =  3.05E-05,  avg # of iterations =  6.0

     total cpu time spent up to now is        1.4 secs

     total energy              =    -399.88514574 Ry
     Harris-Foulkes estimate   =    -399.88904215 Ry
     estimated scf accuracy    <       3.80818682 Ry

     iteration # 17     ecut=    15.00 Ry     beta= 0.70
     Davidson diagonalization with overlap
     ethr =  3.05E-05,  avg # of iterations =  1.0

     total cpu time spent up to now is        1.5 secs

     total energy              =    -399.91559375 Ry
     Harris-Foulkes estimate   =    -399.88515519 Ry
     estimated scf accuracy    <       3.79857495 Ry

     iteration # 18     ecut=    15.00 Ry     beta= 0.70
     Davidson diagonalization with overlap
     ethr =  3.05E-05,  avg # of iterations =  5.0

     total cpu time spent up to now is        1.5 secs

     total energy              =    -399.95303134 Ry
     Harris-Foulkes estimate   =    -399.92894713 Ry
     estimated scf accuracy    <       5.00623544 Ry

     iteration # 19     ecut=    15.00 Ry     beta= 0.70
     Davidson diagonalization with overlap
     ethr =  3.05E-05,  avg # of iterations =  1.0

     total cpu time spent up to now is        1.6 secs

     total energy              =    -399.98460078 Ry
     Harris-Foulkes estimate   =    -399.95310008 Ry
     estimated scf accuracy    <       5.06543064 Ry

     iteration # 20     ecut=    15.00 Ry     beta= 0.70
     Davidson diagonalization with overlap
     ethr =  3.05E-05,  avg # of iterations =  1.0

     total cpu time spent up to now is        1.6 secs

     total energy              =    -398.64329661 Ry
     Harris-Foulkes estimate   =    -399.98480394 Ry
     estimated scf accuracy    <       5.17021999 Ry

     iteration # 21     ecut=    15.00 Ry     beta= 0.70
     Davidson diagonalization with overlap
     ethr =  3.05E-05,  avg # of iterations =  5.0

     total cpu time spent up to now is        1.7 secs

     total energy              =    -399.03714999 Ry
     Harris-Foulkes estimate   =    -399.16945094 Ry
     estimated scf accuracy    <       0.31448191 Ry

     iteration # 22     ecut=    15.00 Ry     beta= 0.70
     Davidson diagonalization with overlap
     ethr =  3.05E-05,  avg # of iterations =  6.0

     total cpu time spent up to now is        1.8 secs

     total energy              =    -399.26987119 Ry
     Harris-Foulkes estimate   =    -399.52895320 Ry
     estimated scf accuracy    <       1.65669099 Ry

     iteration # 23     ecut=    15.00 Ry     beta= 0.70
     Davidson diagonalization with overlap
     ethr =  3.05E-05,  avg # of iterations =  4.0

     total cpu time spent up to now is        1.9 secs

     total energy              =    -399.21935588 Ry
     Harris-Foulkes estimate   =    -399.29643068 Ry
     estimated scf accuracy    <       0.79786852 Ry

     iteration # 24     ecut=    15.00 Ry     beta= 0.70
     Davidson diagonalization with overlap
     ethr =  3.05E-05,  avg # of iterations =  4.0

     total cpu time spent up to now is        1.9 secs

     total energy              =    -399.06105913 Ry
     Harris-Foulkes estimate   =    -399.22431393 Ry
     estimated scf accuracy    <       0.51939187 Ry

     iteration # 25     ecut=    15.00 Ry     beta= 0.70
     Davidson diagonalization with overlap
     ethr =  3.05E-05,  avg # of iterations =  5.0

     total cpu time spent up to now is        2.0 secs

     total energy              =    -399.09760123 Ry
     Harris-Foulkes estimate   =    -399.10024745 Ry
     estimated scf accuracy    <       0.05829932 Ry

     iteration # 26     ecut=    15.00 Ry     beta= 0.70
     Davidson diagonalization with overlap
     ethr =  3.05E-05,  avg # of iterations =  1.0

     total cpu time spent up to now is        2.0 secs

     total energy              =    -399.08519282 Ry
     Harris-Foulkes estimate   =    -399.09774853 Ry
     estimated scf accuracy    <       0.05189860 Ry

     iteration # 27     ecut=    15.00 Ry     beta= 0.70
     Davidson diagonalization with overlap
     ethr =  3.05E-05,  avg # of iterations =  3.0

     total cpu time spent up to now is        2.1 secs

     total energy              =    -399.08471483 Ry
     Harris-Foulkes estimate   =    -399.08677853 Ry
     estimated scf accuracy    <       0.01717324 Ry

     iteration # 28     ecut=    15.00 Ry     beta= 0.70
     Davidson diagonalization with overlap
     ethr =  3.05E-05,  avg # of iterations =  1.0

     total cpu time spent up to now is        2.1 secs

     total energy              =    -399.08342621 Ry
     Harris-Foulkes estimate   =    -399.08486590 Ry
     estimated scf accuracy    <       0.01172495 Ry

     iteration # 29     ecut=    15.00 Ry     beta= 0.70
     Davidson diagonalization with overlap
     ethr =  2.25E-05,  avg # of iterations =  6.0

     total cpu time spent up to now is        2.2 secs

     total energy              =    -399.17186936 Ry
     Harris-Foulkes estimate   =    -399.14901931 Ry
     estimated scf accuracy    <       0.94788589 Ry

     iteration # 30     ecut=    15.00 Ry     beta= 0.70
     Davidson diagonalization with overlap
     ethr =  2.25E-05,  avg # of iterations =  1.0

     total cpu time spent up to now is        2.2 secs

     total energy              =    -399.21161961 Ry
     Harris-Foulkes estimate   =    -399.17207419 Ry
     estimated scf accuracy    <       1.00483975 Ry

     iteration # 31     ecut=    15.00 Ry     beta= 0.70
     Davidson diagonalization with overlap
     ethr =  2.25E-05,  avg # of iterations =  3.0

     total cpu time spent up to now is        2.2 secs

     total energy              =    -399.21199021 Ry
     Harris-Foulkes estimate   =    -399.21264289 Ry
     estimated scf accuracy    <       1.14215773 Ry

     iteration # 32     ecut=    15.00 Ry     beta= 0.70
     Davidson diagonalization with overlap
     ethr =  2.25E-05,  avg # of iterations =  1.0

     total cpu time spent up to now is        2.3 secs

     total energy              =    -399.20969703 Ry
     Harris-Foulkes estimate   =    -399.21201715 Ry
     estimated scf accuracy    <       1.13778374 Ry

     iteration # 33     ecut=    15.00 Ry     beta= 0.70
     Davidson diagonalization with overlap
     ethr =  2.25E-05,  avg # of iterations =  1.0

     total cpu time spent up to now is        2.3 secs

     total energy              =    -399.21271539 Ry
     Harris-Foulkes estimate   =    -399.20972154 Ry
     estimated scf accuracy    <       1.12880338 Ry

     iteration # 34     ecut=    15.00 Ry     beta= 0.70
     Davidson diagonalization with overlap
     ethr =  2.25E-05,  avg # of iterations =  1.0

     total cpu time spent up to now is        2.3 secs

     total energy              =    -399.21571509 Ry
     Harris-Foulkes estimate   =    -399.21272599 Ry
     estimated scf accuracy    <       1.13414053 Ry

     iteration # 35     ecut=    15.00 Ry     beta= 0.70
     Davidson diagonalization with overlap
     ethr =  2.25E-05,  avg # of iterations =  1.0

     total cpu time spent up to now is        2.4 secs

     total energy              =    -399.21449192 Ry
     Harris-Foulkes estimate   =    -399.21572008 Ry
     estimated scf accuracy    <       1.14121489 Ry

     iteration # 36     ecut=    15.00 Ry     beta= 0.70
     Davidson diagonalization with overlap
     ethr =  2.25E-05,  avg # of iterations =  1.0

     total cpu time spent up to now is        2.4 secs

     total energy              =    -399.21368987 Ry
     Harris-Foulkes estimate   =    -399.21449516 Ry
     estimated scf accuracy    <       1.13831452 Ry

     iteration # 37     ecut=    15.00 Ry     beta= 0.70
     Davidson diagonalization with overlap
     ethr =  2.25E-05,  avg # of iterations =  1.0

     total cpu time spent up to now is        2.5 secs

     total energy              =    -398.67687589 Ry
     Harris-Foulkes estimate   =    -399.21369316 Ry
     estimated scf accuracy    <       1.13520281 Ry

     iteration # 38     ecut=    15.00 Ry     beta= 0.70
     Davidson diagonalization with overlap
     ethr =  2.25E-05,  avg # of iterations =  6.0

     total cpu time spent up to now is        2.5 secs

     total energy              =    -399.17079411 Ry
     Harris-Foulkes estimate   =    -399.40990206 Ry
     estimated scf accuracy    <       0.90036100 Ry

     iteration # 39     ecut=    15.00 Ry     beta= 0.70
     Davidson diagonalization with overlap
     ethr =  2.25E-05,  avg # of iterations =  4.0

     total cpu time spent up to now is        2.6 secs

     total energy              =    -399.13847795 Ry
     Harris-Foulkes estimate   =    -399.19369210 Ry
     estimated scf accuracy    <       0.33748335 Ry

     iteration # 40     ecut=    15.00 Ry     beta= 0.70
     Davidson diagonalization with overlap
     ethr =  2.25E-05,  avg # of iterations =  4.0

     total cpu time spent up to now is        2.7 secs

     total energy              =    -399.10689609 Ry
     Harris-Foulkes estimate   =    -399.14255329 Ry
     estimated scf accuracy    <       0.18150081 Ry

     iteration # 41     ecut=    15.00 Ry     beta= 0.70
     Davidson diagonalization with overlap
     ethr =  2.25E-05,  avg # of iterations =  6.0

     total cpu time spent up to now is        2.7 secs

     total energy              =    -399.35838238 Ry
     Harris-Foulkes estimate   =    -399.35317774 Ry
     estimated scf accuracy    <       1.01465442 Ry

     iteration # 42     ecut=    15.00 Ry     beta= 0.70
     Davidson diagonalization with overlap
     ethr =  2.25E-05,  avg # of iterations =  1.0

     total cpu time spent up to now is        2.8 secs

     total energy              =    -399.37065653 Ry
     Harris-Foulkes estimate   =    -399.35840592 Ry
     estimated scf accuracy    <       1.02697592 Ry

     iteration # 43     ecut=    15.00 Ry     beta= 0.70
     Davidson diagonalization with overlap
     ethr =  2.25E-05,  avg # of iterations =  1.0

     total cpu time spent up to now is        2.8 secs

     total energy              =    -399.38459352 Ry
     Harris-Foulkes estimate   =    -399.37076816 Ry
     estimated scf accuracy    <       1.06984177 Ry

     iteration # 44     ecut=    15.00 Ry     beta= 0.70
     Davidson diagonalization with overlap
     ethr =  2.25E-05,  avg # of iterations =  3.0

     total cpu time spent up to now is        2.9 secs

     total energy              =    -399.40564440 Ry
     Harris-Foulkes estimate   =    -399.38478995 Ry
     estimated scf accuracy    <       1.12439456 Ry

     iteration # 45     ecut=    15.00 Ry     beta= 0.70
     Davidson diagonalization with overlap
     ethr =  2.25E-05,  avg # of iterations =  3.0

     total cpu time spent up to now is        2.9 secs

     total energy              =    -399.42893139 Ry
     Harris-Foulkes estimate   =    -399.40597087 Ry
     estimated scf accuracy    <       1.20388231 Ry

     iteration # 46     ecut=    15.00 Ry     beta= 0.70
     Davidson diagonalization with overlap
     ethr =  2.25E-05,  avg # of iterations =  2.0

     total cpu time spent up to now is        2.9 secs

     total energy              =    -400.03203748 Ry
     Harris-Foulkes estimate   =    -399.42922023 Ry
     estimated scf accuracy    <       1.28607123 Ry

     iteration # 47     ecut=    15.00 Ry     beta= 0.70
     Davidson diagonalization with overlap
     ethr =  2.25E-05,  avg # of iterations =  6.0

     total cpu time spent up to now is        3.0 secs

     total energy              =    -400.10474068 Ry
     Harris-Foulkes estimate   =    -400.19215865 Ry
     estimated scf accuracy    <       5.84599196 Ry

     iteration # 48     ecut=    15.00 Ry     beta= 0.70
     Davidson diagonalization with overlap
     ethr =  2.25E-05,  avg # of iterations =  6.0

     total cpu time spent up to now is        3.1 secs

     total energy              =    -399.93352391 Ry
     Harris-Foulkes estimate   =    -400.11316476 Ry
     estimated scf accuracy    <       4.32830844 Ry

     iteration # 49     ecut=    15.00 Ry     beta= 0.70
     Davidson diagonalization with overlap
     ethr =  2.25E-05,  avg # of iterations =  4.0

     total cpu time spent up to now is        3.2 secs

     total energy              =    -398.79545913 Ry
     Harris-Foulkes estimate   =    -399.94174652 Ry
     estimated scf accuracy    <       3.37012059 Ry

     iteration # 50     ecut=    15.00 Ry     beta= 0.70
     Davidson diagonalization with overlap
     ethr =  2.25E-05,  avg # of iterations =  6.0

     total cpu time spent up to now is        3.2 secs

     total energy              =    -399.15736320 Ry
     Harris-Foulkes estimate   =    -399.31806696 Ry
     estimated scf accuracy    <       0.76874979 Ry

     iteration # 51     ecut=    15.00 Ry     beta= 0.70
     Davidson diagonalization with overlap
     ethr =  2.25E-05,  avg # of iterations =  4.0

     total cpu time spent up to now is        3.3 secs

     total energy              =    -399.10592385 Ry
     Harris-Foulkes estimate   =    -399.17210634 Ry
     estimated scf accuracy    <       0.32911213 Ry

     iteration # 52     ecut=    15.00 Ry     beta= 0.70
     Davidson diagonalization with overlap
     ethr =  2.25E-05,  avg # of iterations =  4.0

     total cpu time spent up to now is        3.4 secs

     total energy              =    -399.09458115 Ry
     Harris-Foulkes estimate   =    -399.11512368 Ry
     estimated scf accuracy    <       0.11569837 Ry

     iteration # 53     ecut=    15.00 Ry     beta= 0.70
     Davidson diagonalization with overlap
     ethr =  2.25E-05,  avg # of iterations =  3.0

     total cpu time spent up to now is        3.4 secs

     total energy              =    -399.08459336 Ry
     Harris-Foulkes estimate   =    -399.09681846 Ry
     estimated scf accuracy    <       0.04992008 Ry

     iteration # 54     ecut=    15.00 Ry     beta= 0.70
     Davidson diagonalization with overlap
     ethr =  2.25E-05,  avg # of iterations =  7.0

     total cpu time spent up to now is        3.5 secs

     total energy              =    -399.04313595 Ry
     Harris-Foulkes estimate   =    -399.11970343 Ry
     estimated scf accuracy    <       0.85526526 Ry

     iteration # 55     ecut=    15.00 Ry     beta= 0.70
     Davidson diagonalization with overlap
     ethr =  2.25E-05,  avg # of iterations =  4.0

     total cpu time spent up to now is        3.5 secs

     total energy              =    -399.09871504 Ry
     Harris-Foulkes estimate   =    -399.04677972 Ry
     estimated scf accuracy    <       0.62811975 Ry

     iteration # 56     ecut=    15.00 Ry     beta= 0.70
     Davidson diagonalization with overlap
     ethr =  2.25E-05,  avg # of iterations =  3.0

     total cpu time spent up to now is        3.6 secs

     total energy              =    -398.96762435 Ry
     Harris-Foulkes estimate   =    -399.10122405 Ry
     estimated scf accuracy    <       0.80193640 Ry

     iteration # 57     ecut=    15.00 Ry     beta= 0.70
     Davidson diagonalization with overlap
     ethr =  2.25E-05,  avg # of iterations =  6.0

     total cpu time spent up to now is        3.7 secs

     total energy              =    -399.14629086 Ry
     Harris-Foulkes estimate   =    -399.28918061 Ry
     estimated scf accuracy    <       0.77730886 Ry

     iteration # 58     ecut=    15.00 Ry     beta= 0.70
     Davidson diagonalization with overlap
     ethr =  2.25E-05,  avg # of iterations =  5.0

     total cpu time spent up to now is        3.7 secs

     total energy              =    -399.18704802 Ry
     Harris-Foulkes estimate   =    -399.16483201 Ry
     estimated scf accuracy    <       0.31341683 Ry

     iteration # 59     ecut=    15.00 Ry     beta= 0.70
     Davidson diagonalization with overlap
     ethr =  2.25E-05,  avg # of iterations =  3.0

     total cpu time spent up to now is        3.8 secs

     total energy              =    -399.15731491 Ry
     Harris-Foulkes estimate   =    -399.18847841 Ry
     estimated scf accuracy    <       0.40400897 Ry

     iteration # 60     ecut=    15.00 Ry     beta= 0.70
     Davidson diagonalization with overlap
     ethr =  2.25E-05,  avg # of iterations =  3.0

     total cpu time spent up to now is        3.8 secs

     total energy              =    -399.20031827 Ry
     Harris-Foulkes estimate   =    -399.15859947 Ry
     estimated scf accuracy    <       0.29307885 Ry

     iteration # 61     ecut=    15.00 Ry     beta= 0.70
     Davidson diagonalization with overlap
     ethr =  2.25E-05,  avg # of iterations =  4.0

     total cpu time spent up to now is        3.9 secs

     total energy              =    -399.08140367 Ry
     Harris-Foulkes estimate   =    -399.20281912 Ry
     estimated scf accuracy    <       0.45563191 Ry

     iteration # 62     ecut=    15.00 Ry     beta= 0.70
     Davidson diagonalization with overlap
     ethr =  2.25E-05,  avg # of iterations =  6.0

     total cpu time spent up to now is        4.0 secs

     total energy              =    -399.35674263 Ry
     Harris-Foulkes estimate   =    -399.34564121 Ry
     estimated scf accuracy    <       0.93111251 Ry

     iteration # 63     ecut=    15.00 Ry     beta= 0.70
     Davidson diagonalization with overlap
     ethr =  2.25E-05,  avg # of iterations =  1.0

     total cpu time spent up to now is        4.0 secs

     total energy              =    -399.31839364 Ry
     Harris-Foulkes estimate   =    -399.35685351 Ry
     estimated scf accuracy    <       0.96380021 Ry

     iteration # 64     ecut=    15.00 Ry     beta= 0.70
     Davidson diagonalization with overlap
     ethr =  2.25E-05,  avg # of iterations =  3.0

     total cpu time spent up to now is        4.0 secs

     total energy              =    -399.27086686 Ry
     Harris-Foulkes estimate   =    -399.31906373 Ry
     estimated scf accuracy    <       0.83979781 Ry

     iteration # 65     ecut=    15.00 Ry     beta= 0.70
     Davidson diagonalization with overlap
     ethr =  2.25E-05,  avg # of iterations =  4.0

     total cpu time spent up to now is        4.1 secs

     total energy              =    -399.52166949 Ry
     Harris-Foulkes estimate   =    -399.27254372 Ry
     estimated scf accuracy    <       0.66818253 Ry

     iteration # 66     ecut=    15.00 Ry     beta= 0.70
     Davidson diagonalization with overlap
     ethr =  2.25E-05,  avg # of iterations =  5.0

     total cpu time spent up to now is        4.2 secs

     total energy              =    -399.51253012 Ry
     Harris-Foulkes estimate   =    -399.56262281 Ry
     estimated scf accuracy    <       1.75449430 Ry

     iteration # 67     ecut=    15.00 Ry     beta= 0.70
     Davidson diagonalization with overlap
     ethr =  2.25E-05,  avg # of iterations =  4.0

     total cpu time spent up to now is        4.2 secs

     total energy              =    -399.39377782 Ry
     Harris-Foulkes estimate   =    -399.51345076 Ry
     estimated scf accuracy    <       1.56833328 Ry

     iteration # 68     ecut=    15.00 Ry     beta= 0.70
     Davidson diagonalization with overlap
     ethr =  2.25E-05,  avg # of iterations =  4.0

     total cpu time spent up to now is        4.3 secs

     total energy              =    -399.41312241 Ry
     Harris-Foulkes estimate   =    -399.39899580 Ry
     estimated scf accuracy    <       1.15092114 Ry

     iteration # 69     ecut=    15.00 Ry     beta= 0.70
     Davidson diagonalization with overlap
     ethr =  2.25E-05,  avg # of iterations =  1.0

     total cpu time spent up to now is        4.3 secs

     total energy              =    -399.39692747 Ry
     Harris-Foulkes estimate   =    -399.41320459 Ry
     estimated scf accuracy    <       1.18716739 Ry

     iteration # 70     ecut=    15.00 Ry     beta= 0.70
     Davidson diagonalization with overlap
     ethr =  2.25E-05,  avg # of iterations =  1.0

     total cpu time spent up to now is        4.3 secs

     total energy              =    -398.88656011 Ry
     Harris-Foulkes estimate   =    -399.39710592 Ry
     estimated scf accuracy    <       1.15564342 Ry

     iteration # 71     ecut=    15.00 Ry     beta= 0.70
     Davidson diagonalization with overlap
     ethr =  2.25E-05,  avg # of iterations =  6.0

     total cpu time spent up to now is        4.4 secs

     total energy              =    -399.20526080 Ry
     Harris-Foulkes estimate   =    -399.52755964 Ry
     estimated scf accuracy    <       1.64547328 Ry

     iteration # 72     ecut=    15.00 Ry     beta= 0.70
     Davidson diagonalization with overlap
     ethr =  2.25E-05,  avg # of iterations =  4.0

     total cpu time spent up to now is        4.5 secs

     total energy              =    -399.16933811 Ry
     Harris-Foulkes estimate   =    -399.24767276 Ry
     estimated scf accuracy    <       0.60347257 Ry

     iteration # 73     ecut=    15.00 Ry     beta= 0.70
     Davidson diagonalization with overlap
     ethr =  2.25E-05,  avg # of iterations =  4.0

     total cpu time spent up to now is        4.6 secs

     total energy              =    -399.12916113 Ry
     Harris-Foulkes estimate   =    -399.17498139 Ry
     estimated scf accuracy    <       0.34072231 Ry

     iteration # 74     ecut=    15.00 Ry     beta= 0.70
     Davidson diagonalization with overlap
     ethr =  2.25E-05,  avg # of iterations =  4.0

     total cpu time spent up to now is        4.6 secs

     total energy              =    -399.12175188 Ry
     Harris-Foulkes estimate   =    -399.13267258 Ry
     estimated scf accuracy    <       0.18669345 Ry

     iteration # 75     ecut=    15.00 Ry     beta= 0.70
     Davidson diagonalization with overlap
     ethr =  2.25E-05,  avg # of iterations =  3.0

     total cpu time spent up to now is        4.7 secs

     total energy              =    -399.08706967 Ry
     Harris-Foulkes estimate   =    -399.12206321 Ry
     estimated scf accuracy    <       0.15131491 Ry

     iteration # 76     ecut=    15.00 Ry     beta= 0.70
     Davidson diagonalization with overlap
     ethr =  2.25E-05,  avg # of iterations =  7.0

     total cpu time spent up to now is        4.7 secs

     total energy              =    -399.07397576 Ry
     Harris-Foulkes estimate   =    -399.10213853 Ry
     estimated scf accuracy    <       0.76948466 Ry

     iteration # 77     ecut=    15.00 Ry     beta= 0.70
     Davidson diagonalization with overlap
     ethr =  2.25E-05,  avg # of iterations =  3.0

     total cpu time spent up to now is        4.8 secs

     total energy              =    -399.06041505 Ry
     Harris-Foulkes estimate   =    -399.07480583 Ry
     estimated scf accuracy    <       0.68198371 Ry

     iteration # 78     ecut=    15.00 Ry     beta= 0.70
     Davidson diagonalization with overlap
     ethr =  2.25E-05,  avg # of iterations =  3.0

     total cpu time spent up to now is        4.8 secs

     total energy              =    -399.03934448 Ry
     Harris-Foulkes estimate   =    -399.06069830 Ry
     estimated scf accuracy    <       0.63774248 Ry

     iteration # 79     ecut=    15.00 Ry     beta= 0.70
     Davidson diagonalization with overlap
     ethr =  2.25E-05,  avg # of iterations =  3.0

     total cpu time spent up to now is        4.9 secs

     total energy              =    -399.17921100 Ry
     Harris-Foulkes estimate   =    -399.04018381 Ry
     estimated scf accuracy    <       0.56683660 Ry

     iteration # 80     ecut=    15.00 Ry     beta= 0.70
     Davidson diagonalization with overlap
     ethr =  2.25E-05,  avg # of iterations =  6.0

     total cpu time spent up to now is        5.0 secs

     total energy              =    -399.31022863 Ry
     Harris-Foulkes estimate   =    -399.50737293 Ry
     estimated scf accuracy    <       1.55467303 Ry

     iteration # 81     ecut=    15.00 Ry     beta= 0.70
     Davidson diagonalization with overlap
     ethr =  2.25E-05,  avg # of iterations =  4.0

     total cpu time spent up to now is        5.0 secs

     total energy              =    -399.43193329 Ry
     Harris-Foulkes estimate   =    -399.32502413 Ry
     estimated scf accuracy    <       0.88739601 Ry

     iteration # 82     ecut=    15.00 Ry     beta= 0.70
     Davidson diagonalization with overlap
     ethr =  2.25E-05,  avg # of iterations =  4.0

     total cpu time spent up to now is        5.1 secs

     total energy              =    -399.44871501 Ry
     Harris-Foulkes estimate   =    -399.43797622 Ry
     estimated scf accuracy    <       1.29653540 Ry

     iteration # 83     ecut=    15.00 Ry     beta= 0.70
     Davidson diagonalization with overlap
     ethr =  2.25E-05,  avg # of iterations =  1.0

     total cpu time spent up to now is        5.1 secs

     total energy              =    -399.40414041 Ry
     Harris-Foulkes estimate   =    -399.44876534 Ry
     estimated scf accuracy    <       1.32522551 Ry

     iteration # 84     ecut=    15.00 Ry     beta= 0.70
     Davidson diagonalization with overlap
     ethr =  2.25E-05,  avg # of iterations =  3.0

     total cpu time spent up to now is        5.2 secs

     total energy              =    -398.88180197 Ry
     Harris-Foulkes estimate   =    -399.40476447 Ry
     estimated scf accuracy    <       1.18139228 Ry

     iteration # 85     ecut=    15.00 Ry     beta= 0.70
     Davidson diagonalization with overlap
     ethr =  2.25E-05,  avg # of iterations =  6.0

     total cpu time spent up to now is        5.3 secs

     total energy              =    -399.51583325 Ry
     Harris-Foulkes estimate   =    -399.52740081 Ry
     estimated scf accuracy    <       1.66462311 Ry

     iteration # 86     ecut=    15.00 Ry     beta= 0.70
     Davidson diagonalization with overlap
     ethr =  2.25E-05,  avg # of iterations =  1.0

     total cpu time spent up to now is        5.3 secs

     total energy              =    -399.42604750 Ry
     Harris-Foulkes estimate   =    -399.51587360 Ry
     estimated scf accuracy    <       1.63462223 Ry

     iteration # 87     ecut=    15.00 Ry     beta= 0.70
     Davidson diagonalization with overlap
     ethr =  2.25E-05,  avg # of iterations =  4.0

     total cpu time spent up to now is        5.3 secs

     total energy              =    -399.33553118 Ry
     Harris-Foulkes estimate   =    -399.42936529 Ry
     estimated scf accuracy    <       1.30368970 Ry

     iteration # 88     ecut=    15.00 Ry     beta= 0.70
     Davidson diagonalization with overlap
     ethr =  2.25E-05,  avg # of iterations =  4.0

     total cpu time spent up to now is        5.4 secs

     total energy              =    -399.14590705 Ry
     Harris-Foulkes estimate   =    -399.33960093 Ry
     estimated scf accuracy    <       0.96243114 Ry

     iteration # 89     ecut=    15.00 Ry     beta= 0.70
     Davidson diagonalization with overlap
     ethr =  2.25E-05,  avg # of iterations =  4.0

     total cpu time spent up to now is        5.5 secs

     total energy              =    -399.15148658 Ry
     Harris-Foulkes estimate   =    -399.17178250 Ry
     estimated scf accuracy    <       0.32995325 Ry

     iteration # 90     ecut=    15.00 Ry     beta= 0.70
     Davidson diagonalization with overlap
     ethr =  2.25E-05,  avg # of iterations =  3.0

     total cpu time spent up to now is        5.5 secs

     total energy              =    -399.12047956 Ry
     Harris-Foulkes estimate   =    -399.15210683 Ry
     estimated scf accuracy    <       0.26056947 Ry

     iteration # 91     ecut=    15.00 Ry     beta= 0.70
     Davidson diagonalization with overlap
     ethr =  2.25E-05,  avg # of iterations =  3.0

     total cpu time spent up to now is        5.6 secs

     total energy              =    -399.11241860 Ry
     Harris-Foulkes estimate   =    -399.12281466 Ry
     estimated scf accuracy    <       0.15128053 Ry

     iteration # 92     ecut=    15.00 Ry     beta= 0.70
     Davidson diagonalization with overlap
     ethr =  2.25E-05,  avg # of iterations =  3.0

     total cpu time spent up to now is        5.6 secs

     total energy              =    -399.11233055 Ry
     Harris-Foulkes estimate   =    -399.11276320 Ry
     estimated scf accuracy    <       0.11824073 Ry

     iteration # 93     ecut=    15.00 Ry     beta= 0.70
     Davidson diagonalization with overlap
     ethr =  2.25E-05,  avg # of iterations =  1.0

     total cpu time spent up to now is        5.6 secs

     total energy              =    -399.06008397 Ry
     Harris-Foulkes estimate   =    -399.11237544 Ry
     estimated scf accuracy    <       0.11641082 Ry

     iteration # 94     ecut=    15.00 Ry     beta= 0.70
     Davidson diagonalization with overlap
     ethr =  2.25E-05,  avg # of iterations =  5.0

     total cpu time spent up to now is        5.7 secs

     total energy              =    -399.35633921 Ry
     Harris-Foulkes estimate   =    -399.51076046 Ry
     estimated scf accuracy    <       1.56532953 Ry

     iteration # 95     ecut=    15.00 Ry     beta= 0.70
     Davidson diagonalization with overlap
     ethr =  2.25E-05,  avg # of iterations =  4.0

     total cpu time spent up to now is        5.8 secs

     total energy              =    -399.31776661 Ry
     Harris-Foulkes estimate   =    -399.36513437 Ry
     estimated scf accuracy    <       1.03346141 Ry

     iteration # 96     ecut=    15.00 Ry     beta= 0.70
     Davidson diagonalization with overlap
     ethr =  2.25E-05,  avg # of iterations =  3.0

     total cpu time spent up to now is        5.8 secs

     total energy              =    -399.31159335 Ry
     Harris-Foulkes estimate   =    -399.31892397 Ry
     estimated scf accuracy    <       0.86596433 Ry

     iteration # 97     ecut=    15.00 Ry     beta= 0.70
     Davidson diagonalization with overlap
     ethr =  2.25E-05,  avg # of iterations =  1.0

     total cpu time spent up to now is        5.9 secs

     total energy              =    -399.30930663 Ry
     Harris-Foulkes estimate   =    -399.31163679 Ry
     estimated scf accuracy    <       0.84873926 Ry

     iteration # 98     ecut=    15.00 Ry     beta= 0.70
     Davidson diagonalization with overlap
     ethr =  2.25E-05,  avg # of iterations =  1.0

     total cpu time spent up to now is        5.9 secs

     total energy              =    -399.30922955 Ry
     Harris-Foulkes estimate   =    -399.30932792 Ry
     estimated scf accuracy    <       0.83984665 Ry

     iteration # 99     ecut=    15.00 Ry     beta= 0.70
     Davidson diagonalization with overlap
     ethr =  2.25E-05,  avg # of iterations =  1.0

     total cpu time spent up to now is        5.9 secs

     total energy              =    -399.32461269 Ry
     Harris-Foulkes estimate   =    -399.30924031 Ry
     estimated scf accuracy    <       0.83789489 Ry

     iteration #100     ecut=    15.00 Ry     beta= 0.70
     Davidson diagonalization with overlap
     ethr =  2.25E-05,  avg # of iterations =  1.0

     total cpu time spent up to now is        6.0 secs

     total energy              =    -399.33042410 Ry
     Harris-Foulkes estimate   =    -399.32468325 Ry
     estimated scf accuracy    <       0.87603371 Ry

     End of self-consistent calculation

     convergence NOT achieved after 100 iterations: stopping

     Writing output data file SnO2.save
 
     init_run     :      0.08s CPU      0.10s WALL (       1 calls)
     electrons    :      5.36s CPU      5.60s WALL (       1 calls)

     Called by init_run:
     wfcinit      :      0.01s CPU      0.02s WALL (       1 calls)
     potinit      :      0.02s CPU      0.02s WALL (       1 calls)
     hinit0       :      0.05s CPU      0.06s WALL (       1 calls)

     Called by electrons:
     c_bands      :      4.16s CPU      4.29s WALL (     100 calls)
     sum_band     :      0.42s CPU      0.41s WALL (     100 calls)
     v_of_rho     :      0.55s CPU      0.56s WALL (     101 calls)
     mix_rho      :      0.22s CPU      0.22s WALL (     100 calls)

     Called by c_bands:
     init_us_2    :      0.03s CPU      0.05s WALL (     201 calls)
     cegterg      :      3.93s CPU      4.01s WALL (     100 calls)

     Called by sum_band:

     Called by *egterg:
     h_psi        :      1.96s CPU      2.06s WALL (     443 calls)
     g_psi        :      0.01s CPU      0.01s WALL (     342 calls)
     cdiaghg      :      1.49s CPU      1.44s WALL (     442 calls)

     Called by h_psi:
     h_psi:pot    :      1.95s CPU      2.05s WALL (     443 calls)
     h_psi:calbec :      0.20s CPU      0.21s WALL (     443 calls)
     vloc_psi     :      1.61s CPU      1.59s WALL (     443 calls)
     add_vuspsi   :      0.13s CPU      0.25s WALL (     443 calls)

     General routines
     calbec       :      0.20s CPU      0.21s WALL (     443 calls)
     fft          :      0.21s CPU      0.18s WALL (    1012 calls)
     ffts         :      0.02s CPU      0.02s WALL (     100 calls)
     fftw         :      1.89s CPU      1.72s WALL (   16388 calls)
     davcio       :      0.00s CPU      0.00s WALL (      19 calls)
 
     Parallel routines
     fft_scatt_xy :      0.03s CPU      0.20s WALL (   17500 calls)
     fft_scatt_yz :      1.82s CPU      0.40s WALL (   17500 calls)
 
     PWSCF        :     5.80s CPU         6.16s WALL

 
   This run was terminated on:  23:42:46   7Apr2018            

=------------------------------------------------------------------------------=
   JOB DONE.
=------------------------------------------------------------------------------=
