
     Program PWSCF v.6.2.2 starts on  9Apr2018 at 22:54:33 

     This program is part of the open-source Quantum ESPRESSO suite
     for quantum simulation of materials; please cite
         "P. Giannozzi et al., J. Phys.:Condens. Matter 21 395502 (2009);
         "P. Giannozzi et al., J. Phys.:Condens. Matter 29 465901 (2017);
          URL http://www.quantum-espresso.org", 
     in publications or presentations arising from this work. More details at
     http://www.quantum-espresso.org/quote

     Parallel version (MPI), running on     2 processors

     MPI processes distributed on     1 nodes
     R & G space division:  proc/nbgrp/npool/nimage =       2
     Reading input from Conv_acell-kp.in

     Current dimensions of program PWSCF are:
     Max number of different atomic species (ntypx) = 10
     Max number of k-points (npk) =  40000
     Max angular momentum in pseudopotentials (lmaxx) =  3

     Subspace diagonalization in iterative solution of the eigenvalue problem:
     a serial algorithm will be used

 
     Parallelization info
     --------------------
     sticks:   dense  smooth     PW     G-vecs:    dense   smooth      PW
     Min         332     332    110                 4313     4313     791
     Max         333     333    111                 4314     4314     792
     Sum         665     665    221                 8627     8627    1583
 


     bravais-lattice index     =            6
     lattice parameter (alat)  =       9.1100  a.u.
     unit-cell volume          =     506.5589 (a.u.)^3
     number of atoms/cell      =            6
     number of atomic types    =            2
     number of electrons       =        52.00
     number of Kohn-Sham states=           26
     kinetic-energy cutoff     =      25.0000  Ry
     charge density cutoff     =     100.0000  Ry
     convergence threshold     =      1.0E-12
     mixing beta               =       0.7000
     number of iterations used =            8  plain     mixing
     Exchange-correlation      = PBE ( 1  4  3  4 0 0)
     nstep                     =           50


     celldm(1)=   9.110000  celldm(2)=   0.000000  celldm(3)=   0.670000
     celldm(4)=   0.000000  celldm(5)=   0.000000  celldm(6)=   0.000000

     crystal axes: (cart. coord. in units of alat)
               a(1) = (   1.000000   0.000000   0.000000 )  
               a(2) = (   0.000000   1.000000   0.000000 )  
               a(3) = (   0.000000   0.000000   0.670000 )  

     reciprocal axes: (cart. coord. in units 2 pi/alat)
               b(1) = (  1.000000  0.000000  0.000000 )  
               b(2) = (  0.000000  1.000000  0.000000 )  
               b(3) = (  0.000000  0.000000  1.492537 )  


     PseudoPot. # 1 for Sn read from file:
     ../../Pseudo_potentials/Sn_PBE.upf
     MD5 check sum: 78e6386ae56e929f0568ae8bf606a80c
     Pseudo is Norm-conserving + core correction, Zval = 14.0
     Generated using ONCVPSP code by D. R. Hamann
     Using radial grid of 1628 points,  6 beta functions with: 
                l(1) =   0
                l(2) =   0
                l(3) =   1
                l(4) =   1
                l(5) =   2
                l(6) =   2

     PseudoPot. # 2 for O  read from file:
     ../../Pseudo_potentials/O_PBE.upf
     MD5 check sum: 3e3f909f7470e8921608ab6b1f57bbae
     Pseudo is Norm-conserving + core correction, Zval =  6.0
     Generated using ONCVPSP code by D. R. Hamann
     Using radial grid of  936 points,  5 beta functions with: 
                l(1) =   0
                l(2) =   0
                l(3) =   1
                l(4) =   1
                l(5) =   2

     atomic species   valence    mass     pseudopotential
        Sn            14.00   118.71000     Sn( 1.00)
        O              6.00    15.99900     O ( 1.00)

      4 Sym. Ops. (no inversion) found



   Cartesian axes

     site n.     atom                  positions (alat units)
         1           Sn  tau(   1) = (   0.0000000   0.0000000   0.0000000  )
         2           Sn  tau(   2) = (   0.5000000   0.5000000   0.3350000  )
         3           O   tau(   3) = (   0.8060000   0.1930000   0.3350000  )
         4           O   tau(   4) = (   0.1930000   0.8060000   0.3350000  )
         5           O   tau(   5) = (   0.3060000   0.3060000   0.0000000  )
         6           O   tau(   6) = (   0.6930000   0.6930000   0.0000000  )

     number of k points=  1221

     Number of k-points >= 100: set verbosity='high' to print them.

     Dense  grid:     8627 G-vectors     FFT dimensions: (  30,  30,  20)

     Estimated max dynamical RAM per process >     269.03 MB

     Estimated total dynamical RAM >     538.05 MB

     Check: negative/imaginary core charge=   -0.002394    0.000000

     Initial potential from superposition of free atoms
     Check: negative starting charge=   -0.009566

     starting charge   51.99690, renormalised to   52.00000

     negative rho (up, down):  9.566E-03 0.000E+00
     Starting wfc are   34 randomized atomic wfcs

     total cpu time spent up to now is       33.9 secs

     Self-consistent Calculation

     iteration #  1     ecut=    25.00 Ry     beta= 0.70
     Davidson diagonalization with overlap
     ethr =  1.00E-02,  avg # of iterations =  2.0

     negative rho (up, down):  2.854E-03 0.000E+00

     total cpu time spent up to now is      136.2 secs

     total energy              =    -429.62671058 Ry
     Harris-Foulkes estimate   =    -432.65687527 Ry
     estimated scf accuracy    <       4.17155866 Ry

     iteration #  2     ecut=    25.00 Ry     beta= 0.70
     Davidson diagonalization with overlap
     ethr =  8.02E-03,  avg # of iterations =  2.0

     negative rho (up, down):  8.830E-04 0.000E+00

     total cpu time spent up to now is      226.9 secs

     total energy              =    -430.40187410 Ry
     Harris-Foulkes estimate   =    -430.54287084 Ry
     estimated scf accuracy    <       0.24982762 Ry

     iteration #  3     ecut=    25.00 Ry     beta= 0.70
     Davidson diagonalization with overlap
     ethr =  4.80E-04,  avg # of iterations =  2.8

     negative rho (up, down):  1.589E-04 0.000E+00

     total cpu time spent up to now is      325.1 secs

     total energy              =    -430.44790832 Ry
     Harris-Foulkes estimate   =    -430.46163902 Ry
     estimated scf accuracy    <       0.02950315 Ry

     iteration #  4     ecut=    25.00 Ry     beta= 0.70
     Davidson diagonalization with overlap
     ethr =  5.67E-05,  avg # of iterations =  2.9

     total cpu time spent up to now is      422.8 secs

     total energy              =    -430.45332637 Ry
     Harris-Foulkes estimate   =    -430.45512038 Ry
     estimated scf accuracy    <       0.00351128 Ry

     iteration #  5     ecut=    25.00 Ry     beta= 0.70
     Davidson diagonalization with overlap
     ethr =  6.75E-06,  avg # of iterations =  3.0

     total cpu time spent up to now is      522.5 secs

     total energy              =    -430.45415068 Ry
     Harris-Foulkes estimate   =    -430.45423591 Ry
     estimated scf accuracy    <       0.00017438 Ry

     iteration #  6     ecut=    25.00 Ry     beta= 0.70
     Davidson diagonalization with overlap
     ethr =  3.35E-07,  avg # of iterations =  3.0

     total cpu time spent up to now is      622.6 secs

     total energy              =    -430.45419469 Ry
     Harris-Foulkes estimate   =    -430.45419968 Ry
     estimated scf accuracy    <       0.00001090 Ry

     iteration #  7     ecut=    25.00 Ry     beta= 0.70
     Davidson diagonalization with overlap
     ethr =  2.10E-08,  avg # of iterations =  3.1

     total cpu time spent up to now is      719.4 secs

     total energy              =    -430.45420846 Ry
     Harris-Foulkes estimate   =    -430.45420938 Ry
     estimated scf accuracy    <       0.00000229 Ry

     iteration #  8     ecut=    25.00 Ry     beta= 0.70
     Davidson diagonalization with overlap
     ethr =  4.40E-09,  avg # of iterations =  3.0

     total cpu time spent up to now is      812.1 secs

     total energy              =    -430.45420884 Ry
     Harris-Foulkes estimate   =    -430.45420885 Ry
     estimated scf accuracy    <       0.00000005 Ry

     iteration #  9     ecut=    25.00 Ry     beta= 0.70
     Davidson diagonalization with overlap
     ethr =  8.86E-11,  avg # of iterations =  3.0

     total cpu time spent up to now is      915.3 secs

     total energy              =    -430.45420885 Ry
     Harris-Foulkes estimate   =    -430.45420885 Ry
     estimated scf accuracy    <          5.5E-09 Ry

     iteration # 10     ecut=    25.00 Ry     beta= 0.70
     Davidson diagonalization with overlap
     ethr =  1.05E-11,  avg # of iterations =  3.7

     total cpu time spent up to now is     1026.1 secs

     total energy              =    -430.45420885 Ry
     Harris-Foulkes estimate   =    -430.45420885 Ry
     estimated scf accuracy    <          4.2E-09 Ry

     iteration # 11     ecut=    25.00 Ry     beta= 0.70
     Davidson diagonalization with overlap
     ethr =  7.99E-12,  avg # of iterations =  3.0

     total cpu time spent up to now is     1120.0 secs

     total energy              =    -430.45420885 Ry
     Harris-Foulkes estimate   =    -430.45420885 Ry
     estimated scf accuracy    <          1.4E-10 Ry

     iteration # 12     ecut=    25.00 Ry     beta= 0.70
     Davidson diagonalization with overlap
     ethr =  2.65E-13,  avg # of iterations =  3.1

     total cpu time spent up to now is     1215.4 secs

     total energy              =    -430.45420885 Ry
     Harris-Foulkes estimate   =    -430.45420885 Ry
     estimated scf accuracy    <          6.8E-12 Ry

     iteration # 13     ecut=    25.00 Ry     beta= 0.70
     Davidson diagonalization with overlap
     ethr =  1.00E-13,  avg # of iterations =  1.2

     total cpu time spent up to now is     1285.7 secs

     End of self-consistent calculation

     Number of k-points >= 100: set verbosity='high' to print the bands.

     highest occupied level (ev):     9.8346

!    total energy              =    -430.45420885 Ry
     Harris-Foulkes estimate   =    -430.45420885 Ry
     estimated scf accuracy    <          1.8E-13 Ry

     The total energy is the sum of the following terms:

     one-electron contribution =     -96.64820908 Ry
     hartree contribution      =      85.51196855 Ry
     xc contribution           =    -116.83662998 Ry
     ewald contribution        =    -302.48133834 Ry

     convergence has been achieved in  13 iterations

     Forces acting on atoms (cartesian axes, Ry/au):

     atom    1 type  1   force =     0.00043151    0.00043151    0.00000000
     atom    2 type  1   force =    -0.00003566   -0.00003566    0.00000000
     atom    3 type  2   force =     0.01414633   -0.01365939    0.00000000
     atom    4 type  2   force =    -0.01365939    0.01414633    0.00000000
     atom    5 type  2   force =     0.01347645    0.01347645    0.00000000
     atom    6 type  2   force =    -0.01435924   -0.01435924    0.00000000

     Total force =     0.039362     Total SCF correction =     0.000002


     Computing stress (Cartesian axis) and pressure

          total   stress  (Ry/bohr**3)                   (kbar)     P=-9551.35
  -0.06528055   0.00000027   0.00000000      -9603.10      0.04      0.00
   0.00000027  -0.06528055   0.00000000          0.04  -9603.10      0.00
   0.00000000   0.00000000  -0.06422526          0.00      0.00  -9447.86


     BFGS Geometry Optimization

     number of scf cycles    =   1
     number of bfgs steps    =   0

     enthalpy new            =    -430.4542088525 Ry

     new trust radius        =       0.5000000000 bohr
     new conv_thr            =            1.0E-12 Ry

     new unit-cell volume =    356.53192 a.u.^3 (    52.83258 Ang^3 )
     density =      9.47357 g/cm^3

CELL_PARAMETERS (alat=  9.11000000)
   0.888922769   0.000000000   0.000000000
   0.000000000   0.888922769   0.000000000
   0.000000000   0.000000000   0.596781325

ATOMIC_POSITIONS (crystal)
Sn       0.000003224   0.000003224   0.000000000
Sn       0.499999734   0.499999734   0.500000000
O        0.806105688   0.192897950   0.500000000
O        0.192897950   0.806105688   0.500000000
O        0.306100683   0.306100683   0.000000000
O        0.692892721   0.692892721   0.000000000



     Writing output data file SnO2.save
     Check: negative starting charge=   -0.009566
     NEW-OLD atomic charge density approx. for the potential

     Check: negative/imaginary core charge=   -0.001408    0.000000
     Check: negative starting charge=   -0.001844

     negative rho (up, down):  1.259E+00 0.000E+00
     extrapolated charge   30.11995, renormalised to   52.00000

     total cpu time spent up to now is     1313.1 secs

     Self-consistent Calculation

     iteration #  1     ecut=    25.00 Ry     beta= 0.70
     Davidson diagonalization with overlap
     c_bands:  1 eigenvalues not converged
     c_bands:  1 eigenvalues not converged
     ethr =  1.00E-06,  avg # of iterations = 12.3

     total cpu time spent up to now is     1630.8 secs

     total energy              =    -402.05626049 Ry
     Harris-Foulkes estimate   =    -475.65683423 Ry
     estimated scf accuracy    <      58.32370605 Ry

     iteration #  2     ecut=    25.00 Ry     beta= 0.70
     Davidson diagonalization with overlap
     ethr =  1.00E-02,  avg # of iterations =  5.4

     total cpu time spent up to now is     1790.1 secs

     total energy              =    -436.52427912 Ry
     Harris-Foulkes estimate   =    -447.73206973 Ry
     estimated scf accuracy    <      17.35106370 Ry

     iteration #  3     ecut=    25.00 Ry     beta= 0.70
     Davidson diagonalization with overlap
     ethr =  1.00E-02,  avg # of iterations =  2.6

     total cpu time spent up to now is     1896.3 secs

     total energy              =    -439.52731386 Ry
     Harris-Foulkes estimate   =    -439.89864849 Ry
     estimated scf accuracy    <       0.69728920 Ry

     iteration #  4     ecut=    25.00 Ry     beta= 0.70
     Davidson diagonalization with overlap
     ethr =  1.34E-03,  avg # of iterations =  1.9

     total cpu time spent up to now is     1972.6 secs

     total energy              =    -439.47129094 Ry
     Harris-Foulkes estimate   =    -439.57491365 Ry
     estimated scf accuracy    <       0.16564644 Ry

     iteration #  5     ecut=    25.00 Ry     beta= 0.70
     Davidson diagonalization with overlap
     ethr =  3.19E-04,  avg # of iterations =  2.0

     negative rho (up, down):  1.229E-04 0.000E+00

     total cpu time spent up to now is     2058.1 secs

     total energy              =    -439.47022918 Ry
     Harris-Foulkes estimate   =    -439.48833807 Ry
     estimated scf accuracy    <       0.02420314 Ry

     iteration #  6     ecut=    25.00 Ry     beta= 0.70
     Davidson diagonalization with overlap
     ethr =  4.65E-05,  avg # of iterations =  2.0

     negative rho (up, down):  3.766E-04 0.000E+00

     total cpu time spent up to now is     2158.6 secs

     total energy              =    -439.47427924 Ry
     Harris-Foulkes estimate   =    -439.47506133 Ry
     estimated scf accuracy    <       0.00146562 Ry

     iteration #  7     ecut=    25.00 Ry     beta= 0.70
     Davidson diagonalization with overlap
     ethr =  2.82E-06,  avg # of iterations =  2.1

     negative rho (up, down):  4.924E-05 0.000E+00

     total cpu time spent up to now is     2254.6 secs

     total energy              =    -439.47514070 Ry
     Harris-Foulkes estimate   =    -439.47519300 Ry
     estimated scf accuracy    <       0.00008836 Ry

     iteration #  8     ecut=    25.00 Ry     beta= 0.70
     Davidson diagonalization with overlap
     ethr =  1.70E-07,  avg # of iterations =  2.0

     total cpu time spent up to now is     2348.3 secs

     total energy              =    -439.47515015 Ry
     Harris-Foulkes estimate   =    -439.47515420 Ry
     estimated scf accuracy    <       0.00000702 Ry

     iteration #  9     ecut=    25.00 Ry     beta= 0.70
     Davidson diagonalization with overlap
     ethr =  1.35E-08,  avg # of iterations =  2.6

     total cpu time spent up to now is     2450.0 secs

     total energy              =    -439.47515112 Ry
     Harris-Foulkes estimate   =    -439.47515143 Ry
     estimated scf accuracy    <       0.00000056 Ry

     iteration # 10     ecut=    25.00 Ry     beta= 0.70
     Davidson diagonalization with overlap
     ethr =  1.08E-09,  avg # of iterations =  2.7

     total cpu time spent up to now is     2544.9 secs

     total energy              =    -439.47515122 Ry
     Harris-Foulkes estimate   =    -439.47515125 Ry
     estimated scf accuracy    <       0.00000005 Ry

     iteration # 11     ecut=    25.00 Ry     beta= 0.70
     Davidson diagonalization with overlap
     ethr =  1.05E-10,  avg # of iterations =  2.5

     total cpu time spent up to now is     2648.3 secs

     total energy              =    -439.47515123 Ry
     Harris-Foulkes estimate   =    -439.47515123 Ry
     estimated scf accuracy    <          1.1E-09 Ry

     iteration # 12     ecut=    25.00 Ry     beta= 0.70
     Davidson diagonalization with overlap
     ethr =  2.12E-12,  avg # of iterations =  2.8

     total cpu time spent up to now is     2750.7 secs

     total energy              =    -439.47515123 Ry
     Harris-Foulkes estimate   =    -439.47515123 Ry
     estimated scf accuracy    <          4.7E-11 Ry

     iteration # 13     ecut=    25.00 Ry     beta= 0.70
     Davidson diagonalization with overlap
     ethr =  1.00E-13,  avg # of iterations =  2.4

     total cpu time spent up to now is     2847.4 secs

     total energy              =    -439.47515123 Ry
     Harris-Foulkes estimate   =    -439.47515123 Ry
     estimated scf accuracy    <          3.6E-12 Ry

     iteration # 14     ecut=    25.00 Ry     beta= 0.70
     Davidson diagonalization with overlap
     ethr =  1.00E-13,  avg # of iterations =  1.0

     total cpu time spent up to now is     2917.3 secs

     End of self-consistent calculation

     Number of k-points >= 100: set verbosity='high' to print the bands.

     highest occupied level (ev):    16.0351

!    total energy              =    -439.47515123 Ry
     Harris-Foulkes estimate   =    -439.47515123 Ry
     estimated scf accuracy    <          1.8E-13 Ry

     The total energy is the sum of the following terms:

     one-electron contribution =     -56.67828631 Ry
     hartree contribution      =      78.93231308 Ry
     xc contribution           =    -121.62036531 Ry
     ewald contribution        =    -340.10881269 Ry

     convergence has been achieved in  14 iterations

     Forces acting on atoms (cartesian axes, Ry/au):

     atom    1 type  1   force =    -0.00332258   -0.00332258    0.00000000
     atom    2 type  1   force =    -0.00270150   -0.00270150    0.00000000
     atom    3 type  2   force =    -0.05006190    0.04923761    0.00000000
     atom    4 type  2   force =     0.04923761   -0.05006190    0.00000000
     atom    5 type  2   force =    -0.04622181   -0.04622181    0.00000000
     atom    6 type  2   force =     0.05307019    0.05307019    0.00000000

     Total force =     0.140725     Total SCF correction =     0.000002


     Computing stress (Cartesian axis) and pressure

          total   stress  (Ry/bohr**3)                   (kbar)     P=-7231.81
  -0.05022439   0.00000034   0.00000000      -7388.26      0.05      0.00
   0.00000034  -0.05022439   0.00000000          0.05  -7388.26      0.00
   0.00000000   0.00000000  -0.04703381          0.00      0.00  -6918.91


     number of scf cycles    =   2
     number of bfgs steps    =   1

     enthalpy old            =    -430.4542088525 Ry
     enthalpy new            =    -439.4751512304 Ry

     CASE: enthalpy_new < enthalpy_old

     new trust radius        =       0.7078340891 bohr
     new conv_thr            =            1.0E-12 Ry

     new unit-cell volume =    217.67518 a.u.^3 (    32.25613 Ang^3 )
     density =     15.51683 g/cm^3

CELL_PARAMETERS (alat=  9.11000000)
   0.722306921   0.000000000   0.000000000
   0.000000000   0.722306921   0.000000000
   0.000000000   0.000000000   0.551836266

ATOMIC_POSITIONS (crystal)
Sn      -0.000690254  -0.000690254   0.000000000
Sn       0.499482673   0.499482673   0.500000000
O        0.794731549   0.204054059   0.500000000
O        0.204054059   0.794731549   0.500000000
O        0.295548755   0.295548755   0.000000000
O        0.704873218   0.704873218   0.000000000



     Writing output data file SnO2.save
     Check: negative starting charge=   -0.001844
     NEW-OLD atomic charge density approx. for the potential

     Check: negative/imaginary core charge=   -0.000515    0.000000

     negative rho (up, down):  2.449E+00 0.000E+00
     extrapolated charge   18.83076, renormalised to   52.00000

     total cpu time spent up to now is     2946.7 secs

     Self-consistent Calculation

     iteration #  1     ecut=    25.00 Ry     beta= 0.70
     Davidson diagonalization with overlap
     ethr =  1.00E-06,  avg # of iterations = 11.0

     total cpu time spent up to now is     3268.3 secs

     total energy              =    -392.73710885 Ry
     Harris-Foulkes estimate   =    -483.44688048 Ry
     estimated scf accuracy    <     130.58189423 Ry

     iteration #  2     ecut=    25.00 Ry     beta= 0.70
     Davidson diagonalization with overlap
     ethr =  1.00E-02,  avg # of iterations =  5.0

     total cpu time spent up to now is     3427.9 secs

     total energy              =    -437.81629412 Ry
     Harris-Foulkes estimate   =    -448.31602554 Ry
     estimated scf accuracy    <      15.22871050 Ry

     iteration #  3     ecut=    25.00 Ry     beta= 0.70
     Davidson diagonalization with overlap
     ethr =  1.00E-02,  avg # of iterations =  2.9

     total cpu time spent up to now is     3538.1 secs

     total energy              =    -441.19898423 Ry
     Harris-Foulkes estimate   =    -441.36375107 Ry
     estimated scf accuracy    <       0.31669195 Ry

     iteration #  4     ecut=    25.00 Ry     beta= 0.70
     Davidson diagonalization with overlap
     ethr =  6.09E-04,  avg # of iterations =  2.0

     total cpu time spent up to now is     3625.2 secs

     total energy              =    -441.21236233 Ry
     Harris-Foulkes estimate   =    -441.23288265 Ry
     estimated scf accuracy    <       0.03598724 Ry

     iteration #  5     ecut=    25.00 Ry     beta= 0.70
     Davidson diagonalization with overlap
     ethr =  6.92E-05,  avg # of iterations =  2.0

     total cpu time spent up to now is     3704.9 secs

     total energy              =    -441.21434790 Ry
     Harris-Foulkes estimate   =    -441.21514326 Ry
     estimated scf accuracy    <       0.00151733 Ry

     iteration #  6     ecut=    25.00 Ry     beta= 0.70
     Davidson diagonalization with overlap
     ethr =  2.92E-06,  avg # of iterations =  2.0

     total cpu time spent up to now is     3797.2 secs

     total energy              =    -441.21454260 Ry
     Harris-Foulkes estimate   =    -441.21457327 Ry
     estimated scf accuracy    <       0.00005510 Ry

     iteration #  7     ecut=    25.00 Ry     beta= 0.70
     Davidson diagonalization with overlap
     ethr =  1.06E-07,  avg # of iterations =  3.0

     total cpu time spent up to now is     3905.7 secs

     total energy              =    -441.21455660 Ry
     Harris-Foulkes estimate   =    -441.21455869 Ry
     estimated scf accuracy    <       0.00000468 Ry

     iteration #  8     ecut=    25.00 Ry     beta= 0.70
     Davidson diagonalization with overlap
     ethr =  8.99E-09,  avg # of iterations =  2.2

     total cpu time spent up to now is     3997.3 secs

     total energy              =    -441.21455732 Ry
     Harris-Foulkes estimate   =    -441.21455750 Ry
     estimated scf accuracy    <       0.00000034 Ry

     iteration #  9     ecut=    25.00 Ry     beta= 0.70
     Davidson diagonalization with overlap
     ethr =  6.53E-10,  avg # of iterations =  2.4

     total cpu time spent up to now is     4090.9 secs

     total energy              =    -441.21455737 Ry
     Harris-Foulkes estimate   =    -441.21455739 Ry
     estimated scf accuracy    <       0.00000003 Ry

     iteration # 10     ecut=    25.00 Ry     beta= 0.70
     Davidson diagonalization with overlap
     ethr =  4.84E-11,  avg # of iterations =  2.1

     total cpu time spent up to now is     4187.7 secs

     total energy              =    -441.21455738 Ry
     Harris-Foulkes estimate   =    -441.21455738 Ry
     estimated scf accuracy    <          6.3E-10 Ry

     iteration # 11     ecut=    25.00 Ry     beta= 0.70
     Davidson diagonalization with overlap
     ethr =  1.21E-12,  avg # of iterations =  2.2

     total cpu time spent up to now is     4288.4 secs

     total energy              =    -441.21455738 Ry
     Harris-Foulkes estimate   =    -441.21455738 Ry
     estimated scf accuracy    <          4.3E-11 Ry

     iteration # 12     ecut=    25.00 Ry     beta= 0.70
     Davidson diagonalization with overlap
     ethr =  1.00E-13,  avg # of iterations =  2.0

     total cpu time spent up to now is     4381.9 secs

     total energy              =    -441.21455738 Ry
     Harris-Foulkes estimate   =    -441.21455738 Ry
     estimated scf accuracy    <          3.4E-12 Ry

     iteration # 13     ecut=    25.00 Ry     beta= 0.70
     Davidson diagonalization with overlap
     ethr =  1.00E-13,  avg # of iterations =  1.0

     total cpu time spent up to now is     4451.0 secs

     End of self-consistent calculation

     Number of k-points >= 100: set verbosity='high' to print the bands.

     highest occupied level (ev):    31.4524

!    total energy              =    -441.21455738 Ry
     Harris-Foulkes estimate   =    -441.21455738 Ry
     estimated scf accuracy    <          4.3E-14 Ry

     The total energy is the sum of the following terms:

     one-electron contribution =      29.80660705 Ry
     hartree contribution      =      61.37560695 Ry
     xc contribution           =    -127.50436077 Ry
     ewald contribution        =    -404.89241061 Ry

     convergence has been achieved in  13 iterations

     Forces acting on atoms (cartesian axes, Ry/au):

     atom    1 type  1   force =     0.05532447    0.05532447    0.00000000
     atom    2 type  1   force =     0.00845122    0.00845122    0.00000000
     atom    3 type  2   force =     0.65150348   -0.64738287    0.00000000
     atom    4 type  2   force =    -0.64738287    0.65150348    0.00000000
     atom    5 type  2   force =     0.61582648    0.61582648    0.00000000
     atom    6 type  2   force =    -0.68372278   -0.68372278    0.00000000

     Total force =     1.840333     Total SCF correction =     0.000001


     Computing stress (Cartesian axis) and pressure

          total   stress  (Ry/bohr**3)                   (kbar)     P= 6171.94
   0.05467803   0.00000381   0.00000000       8043.41      0.56      0.00
   0.00000381   0.05467803  -0.00000000          0.56   8043.41     -0.00
   0.00000000   0.00000000   0.01651197          0.00      0.00   2428.99


     number of scf cycles    =   3
     number of bfgs steps    =   2

     enthalpy old            =    -439.4751512304 Ry
     enthalpy new            =    -441.2145573777 Ry

     CASE: enthalpy_new < enthalpy_old

     new trust radius        =       0.6982336788 bohr
     new conv_thr            =            1.0E-12 Ry

     new unit-cell volume =    232.04736 a.u.^3 (    34.38587 Ang^3 )
     density =     14.55577 g/cm^3

CELL_PARAMETERS (alat=  9.11000000)
   0.853566876   0.000000000   0.000000000
   0.000000000   0.853566876   0.000000000
   0.000000000   0.000000000   0.421256292

ATOMIC_POSITIONS (crystal)
Sn       0.001752023   0.001752023   0.000000000
Sn       0.499826880   0.499826880   0.500000000
O        0.823477070   0.175489344   0.500000000
O        0.175489344   0.823477070   0.500000000
O        0.322735324   0.322735324   0.000000000
O        0.674719360   0.674719360   0.000000000



     Writing output data file SnO2.save
     NEW-OLD atomic charge density approx. for the potential

     Check: negative/imaginary core charge=   -0.000777    0.000000
     extrapolated charge   55.22050, renormalised to   52.00000

     total cpu time spent up to now is     4478.5 secs

     Self-consistent Calculation

     iteration #  1     ecut=    25.00 Ry     beta= 0.70
     Davidson diagonalization with overlap
     ethr =  1.00E-06,  avg # of iterations =  8.4

     total cpu time spent up to now is     4747.5 secs

     total energy              =    -437.42694927 Ry
     Harris-Foulkes estimate   =    -432.92856620 Ry
     estimated scf accuracy    <       0.46493592 Ry

     iteration #  2     ecut=    25.00 Ry     beta= 0.70
     Davidson diagonalization with overlap
     ethr =  8.94E-04,  avg # of iterations =  2.8

     total cpu time spent up to now is     4856.1 secs

     total energy              =    -437.68332937 Ry
     Harris-Foulkes estimate   =    -437.81388597 Ry
     estimated scf accuracy    <       0.23948503 Ry

     iteration #  3     ecut=    25.00 Ry     beta= 0.70
     Davidson diagonalization with overlap
     ethr =  4.61E-04,  avg # of iterations =  2.0

     total cpu time spent up to now is     4945.4 secs

     total energy              =    -437.70506691 Ry
     Harris-Foulkes estimate   =    -437.71172050 Ry
     estimated scf accuracy    <       0.01401935 Ry

     iteration #  4     ecut=    25.00 Ry     beta= 0.70
     Davidson diagonalization with overlap
     ethr =  2.70E-05,  avg # of iterations =  2.1

     total cpu time spent up to now is     5044.3 secs

     total energy              =    -437.70746915 Ry
     Harris-Foulkes estimate   =    -437.70747470 Ry
     estimated scf accuracy    <       0.00022626 Ry

     iteration #  5     ecut=    25.00 Ry     beta= 0.70
     Davidson diagonalization with overlap
     ethr =  4.35E-07,  avg # of iterations =  2.3

     total cpu time spent up to now is     5141.5 secs

     total energy              =    -437.70750120 Ry
     Harris-Foulkes estimate   =    -437.70752560 Ry
     estimated scf accuracy    <       0.00004196 Ry

     iteration #  6     ecut=    25.00 Ry     beta= 0.70
     Davidson diagonalization with overlap
     ethr =  8.07E-08,  avg # of iterations =  2.0

     total cpu time spent up to now is     5235.6 secs

     total energy              =    -437.70750861 Ry
     Harris-Foulkes estimate   =    -437.70750920 Ry
     estimated scf accuracy    <       0.00000103 Ry

     iteration #  7     ecut=    25.00 Ry     beta= 0.70
     Davidson diagonalization with overlap
     ethr =  1.98E-09,  avg # of iterations =  2.1

     total cpu time spent up to now is     5338.4 secs

     total energy              =    -437.70750889 Ry
     Harris-Foulkes estimate   =    -437.70750892 Ry
     estimated scf accuracy    <       0.00000005 Ry

     iteration #  8     ecut=    25.00 Ry     beta= 0.70
     Davidson diagonalization with overlap
     ethr =  9.63E-11,  avg # of iterations =  2.1

     total cpu time spent up to now is     5439.6 secs

     total energy              =    -437.70750891 Ry
     Harris-Foulkes estimate   =    -437.70750891 Ry
     estimated scf accuracy    <       0.00000001 Ry

     iteration #  9     ecut=    25.00 Ry     beta= 0.70
     Davidson diagonalization with overlap
     ethr =  1.97E-11,  avg # of iterations =  2.1

     total cpu time spent up to now is     5532.1 secs

     total energy              =    -437.70750891 Ry
     Harris-Foulkes estimate   =    -437.70750891 Ry
     estimated scf accuracy    <          1.0E-09 Ry

     iteration # 10     ecut=    25.00 Ry     beta= 0.70
     Davidson diagonalization with overlap
     ethr =  1.98E-12,  avg # of iterations =  2.0

     total cpu time spent up to now is     5628.4 secs

     total energy              =    -437.70750891 Ry
     Harris-Foulkes estimate   =    -437.70750891 Ry
     estimated scf accuracy    <          4.8E-11 Ry

     iteration # 11     ecut=    25.00 Ry     beta= 0.70
     Davidson diagonalization with overlap
     ethr =  1.00E-13,  avg # of iterations =  2.0

     total cpu time spent up to now is     5727.3 secs

     End of self-consistent calculation

     Number of k-points >= 100: set verbosity='high' to print the bands.

     highest occupied level (ev):    30.1943

!    total energy              =    -437.70750891 Ry
     Harris-Foulkes estimate   =    -437.70750891 Ry
     estimated scf accuracy    <          9.1E-13 Ry

     The total energy is the sum of the following terms:

     one-electron contribution =     -35.24651367 Ry
     hartree contribution      =      88.65937046 Ry
     xc contribution           =    -127.69041587 Ry
     ewald contribution        =    -363.42994982 Ry

     convergence has been achieved in  11 iterations

     Forces acting on atoms (cartesian axes, Ry/au):

     atom    1 type  1   force =     0.02817909    0.02817909    0.00000000
     atom    2 type  1   force =    -0.06576219   -0.06576219    0.00000000
     atom    3 type  2   force =    -1.81895586    1.76675729    0.00000000
     atom    4 type  2   force =     1.76675729   -1.81895586    0.00000000
     atom    5 type  2   force =    -1.74904713   -1.74904713    0.00000000
     atom    6 type  2   force =     1.83882879    1.83882879    0.00000000

     Total force =     5.074566     Total SCF correction =     0.000003


     Computing stress (Cartesian axis) and pressure

          total   stress  (Ry/bohr**3)                   (kbar)     P= 5859.39
  -0.00016577   0.00002592   0.00000000        -24.39      3.81      0.00
   0.00002592  -0.00016577   0.00000000          3.81    -24.39      0.00
   0.00000000   0.00000000   0.11982564          0.00      0.00  17626.96


     number of scf cycles    =   4
     number of bfgs steps    =   3

     enthalpy old            =    -441.2145573777 Ry
     enthalpy new            =    -437.7075089066 Ry

     CASE: enthalpy_new > enthalpy_old

     new trust radius        =       0.2642984121 bohr
     new conv_thr            =            1.0E-12 Ry

     new unit-cell volume =    224.46036 a.u.^3 (    33.26159 Ang^3 )
     density =     15.04778 g/cm^3

CELL_PARAMETERS (alat=  9.11000000)
   0.759041775   0.000000000   0.000000000
   0.000000000   0.759041775   0.000000000
   0.000000000   0.000000000   0.515291714

ATOMIC_POSITIONS (crystal)
Sn      -0.000006750  -0.000006750   0.000000000
Sn       0.499579004   0.499579004   0.500000000
O        0.802776368   0.196059841   0.500000000
O        0.196059841   0.802776368   0.500000000
O        0.303157280   0.303157280   0.000000000
O        0.696434258   0.696434258   0.000000000



     Writing output data file SnO2.save
     NEW-OLD atomic charge density approx. for the potential

     Check: negative/imaginary core charge=   -0.000501    0.000000
     extrapolated charge   50.24245, renormalised to   52.00000

     total cpu time spent up to now is     5754.8 secs

     Self-consistent Calculation

     iteration #  1     ecut=    25.00 Ry     beta= 0.70
     Davidson diagonalization with overlap
     ethr =  1.00E-06,  avg # of iterations =  7.0

     total cpu time spent up to now is     6003.2 secs

     total energy              =    -441.69109063 Ry
     Harris-Foulkes estimate   =    -443.06751459 Ry
     estimated scf accuracy    <       0.24138811 Ry

     iteration #  2     ecut=    25.00 Ry     beta= 0.70
     Davidson diagonalization with overlap
     ethr =  4.64E-04,  avg # of iterations =  2.1

     total cpu time spent up to now is     6104.8 secs

     total energy              =    -441.81252567 Ry
     Harris-Foulkes estimate   =    -441.83884165 Ry
     estimated scf accuracy    <       0.05069662 Ry

     iteration #  3     ecut=    25.00 Ry     beta= 0.70
     Davidson diagonalization with overlap
     ethr =  9.75E-05,  avg # of iterations =  2.0

     total cpu time spent up to now is     6196.6 secs

     total energy              =    -441.81793968 Ry
     Harris-Foulkes estimate   =    -441.81860674 Ry
     estimated scf accuracy    <       0.00234994 Ry

     iteration #  4     ecut=    25.00 Ry     beta= 0.70
     Davidson diagonalization with overlap
     ethr =  4.52E-06,  avg # of iterations =  2.0

     total cpu time spent up to now is     6294.6 secs

     total energy              =    -441.81836950 Ry
     Harris-Foulkes estimate   =    -441.81837671 Ry
     estimated scf accuracy    <       0.00006425 Ry

     iteration #  5     ecut=    25.00 Ry     beta= 0.70
     Davidson diagonalization with overlap
     ethr =  1.24E-07,  avg # of iterations =  2.6

     total cpu time spent up to now is     6397.5 secs

     total energy              =    -441.81837884 Ry
     Harris-Foulkes estimate   =    -441.81839088 Ry
     estimated scf accuracy    <       0.00002338 Ry

     iteration #  6     ecut=    25.00 Ry     beta= 0.70
     Davidson diagonalization with overlap
     ethr =  4.50E-08,  avg # of iterations =  2.0

     total cpu time spent up to now is     6490.8 secs

     total energy              =    -441.81838370 Ry
     Harris-Foulkes estimate   =    -441.81838391 Ry
     estimated scf accuracy    <       0.00000052 Ry

     iteration #  7     ecut=    25.00 Ry     beta= 0.70
     Davidson diagonalization with overlap
     ethr =  1.01E-09,  avg # of iterations =  2.0

     total cpu time spent up to now is     6591.7 secs

     total energy              =    -441.81838384 Ry
     Harris-Foulkes estimate   =    -441.81838385 Ry
     estimated scf accuracy    <       0.00000003 Ry

     iteration #  8     ecut=    25.00 Ry     beta= 0.70
     Davidson diagonalization with overlap
     ethr =  5.13E-11,  avg # of iterations =  2.0

     total cpu time spent up to now is     6691.2 secs

     total energy              =    -441.81838384 Ry
     Harris-Foulkes estimate   =    -441.81838385 Ry
     estimated scf accuracy    <          2.5E-09 Ry

     iteration #  9     ecut=    25.00 Ry     beta= 0.70
     Davidson diagonalization with overlap
     ethr =  4.90E-12,  avg # of iterations =  2.4

     total cpu time spent up to now is     6782.4 secs

     total energy              =    -441.81838384 Ry
     Harris-Foulkes estimate   =    -441.81838384 Ry
     estimated scf accuracy    <          3.2E-10 Ry

     iteration # 10     ecut=    25.00 Ry     beta= 0.70
     Davidson diagonalization with overlap
     ethr =  6.09E-13,  avg # of iterations =  2.0

     total cpu time spent up to now is     6875.9 secs

     total energy              =    -441.81838384 Ry
     Harris-Foulkes estimate   =    -441.81838384 Ry
     estimated scf accuracy    <          9.6E-12 Ry

     iteration # 11     ecut=    25.00 Ry     beta= 0.70
     Davidson diagonalization with overlap
     ethr =  1.00E-13,  avg # of iterations =  1.6

     total cpu time spent up to now is     6947.4 secs

     End of self-consistent calculation

     Number of k-points >= 100: set verbosity='high' to print the bands.

     highest occupied level (ev):    29.6854

!    total energy              =    -441.81838384 Ry
     Harris-Foulkes estimate   =    -441.81838384 Ry
     estimated scf accuracy    <          3.0E-13 Ry

     The total energy is the sum of the following terms:

     one-electron contribution =      17.70014066 Ry
     hartree contribution      =      65.47963300 Ry
     xc contribution           =    -127.32491389 Ry
     ewald contribution        =    -397.67324362 Ry

     convergence has been achieved in  11 iterations

     Forces acting on atoms (cartesian axes, Ry/au):

     atom    1 type  1   force =    -0.00408275   -0.00408275    0.00000000
     atom    2 type  1   force =     0.00614163    0.00614163    0.00000000
     atom    3 type  2   force =    -0.08872035    0.08587338    0.00000000
     atom    4 type  2   force =     0.08587338   -0.08872035    0.00000000
     atom    5 type  2   force =    -0.08702779   -0.08702779    0.00000000
     atom    6 type  2   force =     0.08781589    0.08781589    0.00000000

     Total force =     0.247327     Total SCF correction =     0.000002


     Computing stress (Cartesian axis) and pressure

          total   stress  (Ry/bohr**3)                   (kbar)     P= 5226.75
   0.03204982  -0.00000038   0.00000000       4714.69     -0.06      0.00
  -0.00000038   0.03204982   0.00000000         -0.06   4714.69      0.00
   0.00000000   0.00000000   0.04249246          0.00      0.00   6250.86


     number of scf cycles    =   5
     number of bfgs steps    =   3

     enthalpy old            =    -441.2145573777 Ry
     enthalpy new            =    -441.8183838449 Ry

     CASE: enthalpy_new < enthalpy_old

     new trust radius        =       0.4938570338 bohr
     new conv_thr            =            1.0E-12 Ry

     new unit-cell volume =    308.66495 a.u.^3 (    45.73943 Ang^3 )
     density =     10.94270 g/cm^3

CELL_PARAMETERS (alat=  9.11000000)
   0.824727927   0.000000000   0.000000000
   0.000000000   0.824727927   0.000000000
   0.000000000   0.000000000   0.600220436

ATOMIC_POSITIONS (crystal)
Sn       0.000317411   0.000317411   0.000000000
Sn       0.500332105   0.500332105   0.500000000
O        0.804765616   0.193963678   0.500000000
O        0.193963678   0.804765616   0.500000000
O        0.304707812   0.304707812   0.000000000
O        0.693913378   0.693913378   0.000000000



     Writing output data file SnO2.save
     NEW-OLD atomic charge density approx. for the potential

     Check: negative/imaginary core charge=   -0.001120    0.000000
     Check: negative starting charge=   -0.000713

     negative rho (up, down):  9.633E-04 0.000E+00
     extrapolated charge   66.18489, renormalised to   52.00000

     total cpu time spent up to now is     6974.3 secs

     Self-consistent Calculation

     iteration #  1     ecut=    25.00 Ry     beta= 0.70
     Davidson diagonalization with overlap
     c_bands:  1 eigenvalues not converged
     c_bands:  1 eigenvalues not converged
     c_bands:  1 eigenvalues not converged
     c_bands:  1 eigenvalues not converged
     c_bands:  1 eigenvalues not converged
     c_bands:  1 eigenvalues not converged
     c_bands:  1 eigenvalues not converged
     c_bands:  1 eigenvalues not converged
     c_bands:  2 eigenvalues not converged
     c_bands:  1 eigenvalues not converged
     c_bands:  1 eigenvalues not converged
     c_bands:  1 eigenvalues not converged
     c_bands:  1 eigenvalues not converged
     c_bands:  2 eigenvalues not converged
     c_bands:  1 eigenvalues not converged
     c_bands:  1 eigenvalues not converged
     c_bands:  1 eigenvalues not converged
     c_bands:  1 eigenvalues not converged
     c_bands:  1 eigenvalues not converged
     ethr =  1.00E-06,  avg # of iterations = 13.0

     negative rho (up, down):  2.051E-04 0.000E+00

     total cpu time spent up to now is     7256.9 secs

     total energy              =    -429.67830610 Ry
     Harris-Foulkes estimate   =    -426.40446285 Ry
     estimated scf accuracy    <       6.61504189 Ry

     iteration #  2     ecut=    25.00 Ry     beta= 0.70
     Davidson diagonalization with overlap
     ethr =  1.00E-02,  avg # of iterations =  4.5

     negative rho (up, down):  9.650E-05 0.000E+00

     total cpu time spent up to now is     7406.1 secs

     total energy              =    -441.89683100 Ry
     Harris-Foulkes estimate   =    -445.58448769 Ry
     estimated scf accuracy    <       8.45366364 Ry

     iteration #  3     ecut=    25.00 Ry     beta= 0.70
     Davidson diagonalization with overlap
     ethr =  1.00E-02,  avg # of iterations =  2.0

     negative rho (up, down):  3.898E-05 0.000E+00

     total cpu time spent up to now is     7485.5 secs

     total energy              =    -441.66487378 Ry
     Harris-Foulkes estimate   =    -442.31667565 Ry
     estimated scf accuracy    <       1.96195086 Ry

     iteration #  4     ecut=    25.00 Ry     beta= 0.70
     Davidson diagonalization with overlap
     ethr =  3.77E-03,  avg # of iterations =  1.0

     total cpu time spent up to now is     7553.6 secs

     total energy              =    -441.38684087 Ry
     Harris-Foulkes estimate   =    -441.72149237 Ry
     estimated scf accuracy    <       0.79722132 Ry

     iteration #  5     ecut=    25.00 Ry     beta= 0.70
     Davidson diagonalization with overlap
     ethr =  1.53E-03,  avg # of iterations =  1.6

     total cpu time spent up to now is     7625.0 secs

     total energy              =    -441.31705439 Ry
     Harris-Foulkes estimate   =    -441.42919985 Ry
     estimated scf accuracy    <       0.17841893 Ry

     iteration #  6     ecut=    25.00 Ry     beta= 0.70
     Davidson diagonalization with overlap
     ethr =  3.43E-04,  avg # of iterations =  2.0

     total cpu time spent up to now is     7725.3 secs

     total energy              =    -441.35402343 Ry
     Harris-Foulkes estimate   =    -441.35446277 Ry
     estimated scf accuracy    <       0.00075634 Ry

     iteration #  7     ecut=    25.00 Ry     beta= 0.70
     Davidson diagonalization with overlap
     ethr =  1.45E-06,  avg # of iterations =  2.5

     total cpu time spent up to now is     7830.0 secs

     total energy              =    -441.35436477 Ry
     Harris-Foulkes estimate   =    -441.35443404 Ry
     estimated scf accuracy    <       0.00025565 Ry

     iteration #  8     ecut=    25.00 Ry     beta= 0.70
     Davidson diagonalization with overlap
     ethr =  4.92E-07,  avg # of iterations =  1.0

     total cpu time spent up to now is     7899.0 secs

     total energy              =    -441.35431946 Ry
     Harris-Foulkes estimate   =    -441.35437636 Ry
     estimated scf accuracy    <       0.00010928 Ry

     iteration #  9     ecut=    25.00 Ry     beta= 0.70
     Davidson diagonalization with overlap
     ethr =  2.10E-07,  avg # of iterations =  2.0

     total cpu time spent up to now is     7985.3 secs

     total energy              =    -441.35432845 Ry
     Harris-Foulkes estimate   =    -441.35433118 Ry
     estimated scf accuracy    <       0.00000591 Ry

     iteration # 10     ecut=    25.00 Ry     beta= 0.70
     Davidson diagonalization with overlap
     ethr =  1.14E-08,  avg # of iterations =  2.0

     total cpu time spent up to now is     8078.7 secs

     total energy              =    -441.35432933 Ry
     Harris-Foulkes estimate   =    -441.35432956 Ry
     estimated scf accuracy    <       0.00000042 Ry

     iteration # 11     ecut=    25.00 Ry     beta= 0.70
     Davidson diagonalization with overlap
     ethr =  8.16E-10,  avg # of iterations =  2.0

     total cpu time spent up to now is     8178.9 secs

     total energy              =    -441.35432939 Ry
     Harris-Foulkes estimate   =    -441.35432941 Ry
     estimated scf accuracy    <       0.00000005 Ry

     iteration # 12     ecut=    25.00 Ry     beta= 0.70
     Davidson diagonalization with overlap
     ethr =  8.78E-11,  avg # of iterations =  2.0

     total cpu time spent up to now is     8268.2 secs

     total energy              =    -441.35432939 Ry
     Harris-Foulkes estimate   =    -441.35432939 Ry
     estimated scf accuracy    <          3.6E-09 Ry

     iteration # 13     ecut=    25.00 Ry     beta= 0.70
     Davidson diagonalization with overlap
     ethr =  7.00E-12,  avg # of iterations =  2.0

     total cpu time spent up to now is     8355.9 secs

     total energy              =    -441.35432939 Ry
     Harris-Foulkes estimate   =    -441.35432939 Ry
     estimated scf accuracy    <          3.8E-10 Ry

     iteration # 14     ecut=    25.00 Ry     beta= 0.70
     Davidson diagonalization with overlap
     ethr =  7.28E-13,  avg # of iterations =  2.0

     total cpu time spent up to now is     8448.9 secs

     total energy              =    -441.35432939 Ry
     Harris-Foulkes estimate   =    -441.35432939 Ry
     estimated scf accuracy    <          3.5E-11 Ry

     iteration # 15     ecut=    25.00 Ry     beta= 0.70
     Davidson diagonalization with overlap
     ethr =  1.00E-13,  avg # of iterations =  2.0

     total cpu time spent up to now is     8533.7 secs

     total energy              =    -441.35432939 Ry
     Harris-Foulkes estimate   =    -441.35432939 Ry
     estimated scf accuracy    <          1.1E-12 Ry

     iteration # 16     ecut=    25.00 Ry     beta= 0.70
     Davidson diagonalization with overlap
     ethr =  1.00E-13,  avg # of iterations =  1.0

     total cpu time spent up to now is     8602.9 secs

     End of self-consistent calculation

     Number of k-points >= 100: set verbosity='high' to print the bands.

     highest occupied level (ev):    19.7342

!    total energy              =    -441.35432939 Ry
     Harris-Foulkes estimate   =    -441.35432939 Ry
     estimated scf accuracy    <          8.3E-14 Ry

     The total energy is the sum of the following terms:

     one-electron contribution =     -31.38271361 Ry
     hartree contribution      =      72.97723334 Ry
     xc contribution           =    -123.32313982 Ry
     ewald contribution        =    -359.62570930 Ry

     convergence has been achieved in  16 iterations

     Forces acting on atoms (cartesian axes, Ry/au):

     atom    1 type  1   force =    -0.01663136   -0.01663136    0.00000000
     atom    2 type  1   force =    -0.00369265   -0.00369265    0.00000000
     atom    3 type  2   force =     0.04836653   -0.05285900    0.00000000
     atom    4 type  2   force =    -0.05285900    0.04836653    0.00000000
     atom    5 type  2   force =     0.06324147    0.06324147    0.00000000
     atom    6 type  2   force =    -0.03842499   -0.03842499    0.00000000

     Total force =     0.147646     Total SCF correction =     0.000000


     Computing stress (Cartesian axis) and pressure

          total   stress  (Ry/bohr**3)                   (kbar)     P=-4897.34
  -0.02710165   0.00000281   0.00000000      -3986.79      0.41      0.00
   0.00000281  -0.02710165  -0.00000000          0.41  -3986.79     -0.00
   0.00000000  -0.00000000  -0.04567105          0.00     -0.00  -6718.44


     number of scf cycles    =   6
     number of bfgs steps    =   4

     enthalpy old            =    -441.8183838449 Ry
     enthalpy new            =    -441.3543293921 Ry

     CASE: enthalpy_new > enthalpy_old

     new trust radius        =       0.2133282602 bohr
     new conv_thr            =            1.0E-12 Ry

     new unit-cell volume =    258.51296 a.u.^3 (    38.30767 Ang^3 )
     density =     13.06561 g/cm^3

CELL_PARAMETERS (alat=  9.11000000)
   0.787225913   0.000000000   0.000000000
   0.000000000   0.787225913   0.000000000
   0.000000000   0.000000000   0.551732314

ATOMIC_POSITIONS (crystal)
Sn       0.000132339   0.000132339   0.000000000
Sn       0.499902139   0.499902139   0.500000000
O        0.803629900   0.195160435   0.500000000
O        0.195160435   0.803629900   0.500000000
O        0.303822571   0.303822571   0.000000000
O        0.695352617   0.695352617   0.000000000



     Writing output data file SnO2.save
     Check: negative starting charge=   -0.000713
     NEW-OLD atomic charge density approx. for the potential

     Check: negative/imaginary core charge=   -0.000749    0.000000
     extrapolated charge   41.91251, renormalised to   52.00000

     total cpu time spent up to now is     8629.9 secs

     Self-consistent Calculation

     iteration #  1     ecut=    25.00 Ry     beta= 0.70
     Davidson diagonalization with overlap
     ethr =  1.00E-06,  avg # of iterations =  6.0

     total cpu time spent up to now is     8838.7 secs

     total energy              =    -439.59859871 Ry
     Harris-Foulkes estimate   =    -450.81751027 Ry
     estimated scf accuracy    <       2.63111034 Ry

     iteration #  2     ecut=    25.00 Ry     beta= 0.70
     Davidson diagonalization with overlap
     ethr =  5.06E-03,  avg # of iterations =  3.0

     total cpu time spent up to now is     8951.1 secs

     total energy              =    -442.29216383 Ry
     Harris-Foulkes estimate   =    -443.04002467 Ry
     estimated scf accuracy    <       1.62501357 Ry

     iteration #  3     ecut=    25.00 Ry     beta= 0.70
     Davidson diagonalization with overlap
     ethr =  3.13E-03,  avg # of iterations =  2.0

     total cpu time spent up to now is     9035.7 secs

     total energy              =    -442.36303217 Ry
     Harris-Foulkes estimate   =    -442.44017504 Ry
     estimated scf accuracy    <       0.15843383 Ry

     iteration #  4     ecut=    25.00 Ry     beta= 0.70
     Davidson diagonalization with overlap
     ethr =  3.05E-04,  avg # of iterations =  2.0

     total cpu time spent up to now is     9120.3 secs

     total energy              =    -442.37181004 Ry
     Harris-Foulkes estimate   =    -442.38096441 Ry
     estimated scf accuracy    <       0.01440074 Ry

     iteration #  5     ecut=    25.00 Ry     beta= 0.70
     Davidson diagonalization with overlap
     ethr =  2.77E-05,  avg # of iterations =  2.3

     total cpu time spent up to now is     9222.5 secs

     total energy              =    -442.37613105 Ry
     Harris-Foulkes estimate   =    -442.37697762 Ry
     estimated scf accuracy    <       0.00162842 Ry

     iteration #  6     ecut=    25.00 Ry     beta= 0.70
     Davidson diagonalization with overlap
     ethr =  3.13E-06,  avg # of iterations =  2.0

     total cpu time spent up to now is     9311.2 secs

     total energy              =    -442.37631982 Ry
     Harris-Foulkes estimate   =    -442.37635028 Ry
     estimated scf accuracy    <       0.00006088 Ry

     iteration #  7     ecut=    25.00 Ry     beta= 0.70
     Davidson diagonalization with overlap
     ethr =  1.17E-07,  avg # of iterations =  2.0

     total cpu time spent up to now is     9407.8 secs

     total energy              =    -442.37632767 Ry
     Harris-Foulkes estimate   =    -442.37632905 Ry
     estimated scf accuracy    <       0.00000335 Ry

     iteration #  8     ecut=    25.00 Ry     beta= 0.70
     Davidson diagonalization with overlap
     ethr =  6.45E-09,  avg # of iterations =  2.0

     total cpu time spent up to now is     9493.8 secs

     total energy              =    -442.37632772 Ry
     Harris-Foulkes estimate   =    -442.37632800 Ry
     estimated scf accuracy    <       0.00000049 Ry

     iteration #  9     ecut=    25.00 Ry     beta= 0.70
     Davidson diagonalization with overlap
     ethr =  9.47E-10,  avg # of iterations =  2.0

     total cpu time spent up to now is     9590.2 secs

     total energy              =    -442.37632782 Ry
     Harris-Foulkes estimate   =    -442.37632782 Ry
     estimated scf accuracy    <          2.2E-09 Ry

     iteration # 10     ecut=    25.00 Ry     beta= 0.70
     Davidson diagonalization with overlap
     ethr =  4.16E-12,  avg # of iterations =  3.0

     total cpu time spent up to now is     9699.9 secs

     total energy              =    -442.37632782 Ry
     Harris-Foulkes estimate   =    -442.37632782 Ry
     estimated scf accuracy    <          3.4E-10 Ry

     iteration # 11     ecut=    25.00 Ry     beta= 0.70
     Davidson diagonalization with overlap
     ethr =  6.56E-13,  avg # of iterations =  2.0

     total cpu time spent up to now is     9794.1 secs

     total energy              =    -442.37632782 Ry
     Harris-Foulkes estimate   =    -442.37632782 Ry
     estimated scf accuracy    <          3.1E-12 Ry

     iteration # 12     ecut=    25.00 Ry     beta= 0.70
     Davidson diagonalization with overlap
     ethr =  1.00E-13,  avg # of iterations =  1.0

     total cpu time spent up to now is     9862.0 secs

     End of self-consistent calculation

     Number of k-points >= 100: set verbosity='high' to print the bands.

     highest occupied level (ev):    24.7834

!    total energy              =    -442.37632782 Ry
     Harris-Foulkes estimate   =    -442.37632782 Ry
     estimated scf accuracy    <          3.7E-13 Ry

     The total energy is the sum of the following terms:

     one-electron contribution =      -5.39528305 Ry
     hartree contribution      =      68.98310691 Ry
     xc contribution           =    -125.57438370 Ry
     ewald contribution        =    -380.38976798 Ry

     convergence has been achieved in  12 iterations

     Forces acting on atoms (cartesian axes, Ry/au):

     atom    1 type  1   force =    -0.01227756   -0.01227756    0.00000000
     atom    2 type  1   force =    -0.00129315   -0.00129315    0.00000000
     atom    3 type  2   force =     0.00130772   -0.00543295    0.00000000
     atom    4 type  2   force =    -0.00543295    0.00130772    0.00000000
     atom    5 type  2   force =     0.01226679    0.01226679    0.00000000
     atom    6 type  2   force =     0.00542915    0.00542915    0.00000000

     Total force =     0.026966     Total SCF correction =     0.000002


     Computing stress (Cartesian axis) and pressure

          total   stress  (Ry/bohr**3)                   (kbar)     P= -140.34
   0.00036696   0.00000110   0.00000000         53.98      0.16      0.00
   0.00000110   0.00036696   0.00000000          0.16     53.98      0.00
   0.00000000   0.00000000  -0.00359589          0.00      0.00   -528.97


     number of scf cycles    =   7
     number of bfgs steps    =   4

     enthalpy old            =    -441.8183838449 Ry
     enthalpy new            =    -442.3763278166 Ry

     CASE: enthalpy_new < enthalpy_old

     new trust radius        =       0.0496050243 bohr
     new conv_thr            =            1.0E-12 Ry

     new unit-cell volume =    258.11745 a.u.^3 (    38.24906 Ang^3 )
     density =     13.08563 g/cm^3

CELL_PARAMETERS (alat=  9.11000000)
   0.792761834   0.000000000   0.000000000
   0.000000000   0.792761834   0.000000000
   0.000000000   0.000000000   0.543221268

ATOMIC_POSITIONS (crystal)
Sn      -0.001121770  -0.001121770   0.000000000
Sn       0.499804122   0.499804122   0.500000000
O        0.800629029   0.197784230   0.500000000
O        0.197784230   0.800629029   0.500000000
O        0.301876729   0.301876729   0.000000000
O        0.699027661   0.699027661   0.000000000



     Writing output data file SnO2.save
     NEW-OLD atomic charge density approx. for the potential

     Check: negative/imaginary core charge=   -0.000740    0.000000
     extrapolated charge   51.92033, renormalised to   52.00000

     total cpu time spent up to now is     9888.6 secs

     Self-consistent Calculation

     iteration #  1     ecut=    25.00 Ry     beta= 0.70
     Davidson diagonalization with overlap
     ethr =  1.00E-06,  avg # of iterations =  5.0

     total cpu time spent up to now is    10059.6 secs

     total energy              =    -442.38106845 Ry
     Harris-Foulkes estimate   =    -442.45140943 Ry
     estimated scf accuracy    <       0.00156758 Ry

     iteration #  2     ecut=    25.00 Ry     beta= 0.70
     Davidson diagonalization with overlap
     ethr =  3.01E-06,  avg # of iterations =  2.0

     total cpu time spent up to now is    10158.9 secs

     total energy              =    -442.38146239 Ry
     Harris-Foulkes estimate   =    -442.38153752 Ry
     estimated scf accuracy    <       0.00018687 Ry

     iteration #  3     ecut=    25.00 Ry     beta= 0.70
     Davidson diagonalization with overlap
     ethr =  3.59E-07,  avg # of iterations =  2.0

     total cpu time spent up to now is    10250.0 secs

     total energy              =    -442.38149477 Ry
     Harris-Foulkes estimate   =    -442.38149414 Ry
     estimated scf accuracy    <       0.00000981 Ry

     iteration #  4     ecut=    25.00 Ry     beta= 0.70
     Davidson diagonalization with overlap
     ethr =  1.89E-08,  avg # of iterations =  2.0

     total cpu time spent up to now is    10346.6 secs

     total energy              =    -442.38149644 Ry
     Harris-Foulkes estimate   =    -442.38149715 Ry
     estimated scf accuracy    <       0.00000159 Ry

     iteration #  5     ecut=    25.00 Ry     beta= 0.70
     Davidson diagonalization with overlap
     ethr =  3.06E-09,  avg # of iterations =  2.3

     total cpu time spent up to now is    10444.9 secs

     total energy              =    -442.38149684 Ry
     Harris-Foulkes estimate   =    -442.38149694 Ry
     estimated scf accuracy    <       0.00000022 Ry

     iteration #  6     ecut=    25.00 Ry     beta= 0.70
     Davidson diagonalization with overlap
     ethr =  4.30E-10,  avg # of iterations =  2.1

     total cpu time spent up to now is    10540.0 secs

     total energy              =    -442.38149689 Ry
     Harris-Foulkes estimate   =    -442.38149690 Ry
     estimated scf accuracy    <       0.00000001 Ry

     iteration #  7     ecut=    25.00 Ry     beta= 0.70
     Davidson diagonalization with overlap
     ethr =  2.51E-11,  avg # of iterations =  2.0

     total cpu time spent up to now is    10630.7 secs

     total energy              =    -442.38149690 Ry
     Harris-Foulkes estimate   =    -442.38149690 Ry
     estimated scf accuracy    <          1.2E-10 Ry

     iteration #  8     ecut=    25.00 Ry     beta= 0.70
     Davidson diagonalization with overlap
     ethr =  2.39E-13,  avg # of iterations =  2.4

     total cpu time spent up to now is    10733.0 secs

     total energy              =    -442.38149690 Ry
     Harris-Foulkes estimate   =    -442.38149690 Ry
     estimated scf accuracy    <          9.7E-12 Ry

     iteration #  9     ecut=    25.00 Ry     beta= 0.70
     Davidson diagonalization with overlap
     ethr =  1.00E-13,  avg # of iterations =  1.9

     total cpu time spent up to now is    10805.9 secs

     End of self-consistent calculation

     Number of k-points >= 100: set verbosity='high' to print the bands.

     highest occupied level (ev):    24.7266

!    total energy              =    -442.38149690 Ry
     Harris-Foulkes estimate   =    -442.38149690 Ry
     estimated scf accuracy    <          9.7E-13 Ry

     The total energy is the sum of the following terms:

     one-electron contribution =      -6.05426482 Ry
     hartree contribution      =      69.34582308 Ry
     xc contribution           =    -125.62086561 Ry
     ewald contribution        =    -380.05218954 Ry

     convergence has been achieved in   9 iterations

     Forces acting on atoms (cartesian axes, Ry/au):

     atom    1 type  1   force =     0.04491250    0.04491250    0.00000000
     atom    2 type  1   force =     0.00848195    0.00848195    0.00000000
     atom    3 type  2   force =     0.01117848   -0.00587491    0.00000000
     atom    4 type  2   force =    -0.00587491    0.01117848    0.00000000
     atom    5 type  2   force =    -0.02034146   -0.02034146    0.00000000
     atom    6 type  2   force =    -0.03835656   -0.03835656    0.00000000

     Total force =     0.090924     Total SCF correction =     0.000003


     Computing stress (Cartesian axis) and pressure

          total   stress  (Ry/bohr**3)                   (kbar)     P=  -26.41
  -0.00037637   0.00000677   0.00000000        -55.37      1.00      0.00
   0.00000677  -0.00037637   0.00000000          1.00    -55.37      0.00
   0.00000000   0.00000000   0.00021421          0.00      0.00     31.51


     number of scf cycles    =   8
     number of bfgs steps    =   5

     enthalpy old            =    -442.3763278166 Ry
     enthalpy new            =    -442.3814968953 Ry

     CASE: enthalpy_new < enthalpy_old

     new trust radius        =       0.0280898997 bohr
     new conv_thr            =            1.0E-12 Ry

     new unit-cell volume =    257.73738 a.u.^3 (    38.19274 Ang^3 )
     density =     13.10493 g/cm^3

CELL_PARAMETERS (alat=  9.11000000)
   0.792011497   0.000000000   0.000000000
   0.000000000   0.792011497   0.000000000
   0.000000000   0.000000000   0.543449649

ATOMIC_POSITIONS (crystal)
Sn       0.001628492   0.001628492   0.000000000
Sn       0.500341047   0.500341047   0.500000000
O        0.801121813   0.197580396   0.500000000
O        0.197580396   0.801121813   0.500000000
O        0.300468765   0.300468765   0.000000000
O        0.696859486   0.696859486   0.000000000



     Writing output data file SnO2.save
     NEW-OLD atomic charge density approx. for the potential

     Check: negative/imaginary core charge=   -0.000737    0.000000
     extrapolated charge   51.92332, renormalised to   52.00000

     total cpu time spent up to now is    10832.4 secs

     Self-consistent Calculation

     iteration #  1     ecut=    25.00 Ry     beta= 0.70
     Davidson diagonalization with overlap
     ethr =  1.00E-06,  avg # of iterations =  4.2

     total cpu time spent up to now is    10995.7 secs

     total energy              =    -442.38021388 Ry
     Harris-Foulkes estimate   =    -442.44736323 Ry
     estimated scf accuracy    <       0.00065115 Ry

     iteration #  2     ecut=    25.00 Ry     beta= 0.70
     Davidson diagonalization with overlap
     ethr =  1.25E-06,  avg # of iterations =  2.0

     total cpu time spent up to now is    11094.8 secs

     total energy              =    -442.38045266 Ry
     Harris-Foulkes estimate   =    -442.38052603 Ry
     estimated scf accuracy    <       0.00015528 Ry

     iteration #  3     ecut=    25.00 Ry     beta= 0.70
     Davidson diagonalization with overlap
     ethr =  2.99E-07,  avg # of iterations =  2.0

     total cpu time spent up to now is    11183.3 secs

     total energy              =    -442.38047620 Ry
     Harris-Foulkes estimate   =    -442.38047733 Ry
     estimated scf accuracy    <       0.00000866 Ry

     iteration #  4     ecut=    25.00 Ry     beta= 0.70
     Davidson diagonalization with overlap
     ethr =  1.67E-08,  avg # of iterations =  2.0

     total cpu time spent up to now is    11282.3 secs

     total energy              =    -442.38047780 Ry
     Harris-Foulkes estimate   =    -442.38047907 Ry
     estimated scf accuracy    <       0.00000240 Ry

     iteration #  5     ecut=    25.00 Ry     beta= 0.70
     Davidson diagonalization with overlap
     ethr =  4.62E-09,  avg # of iterations =  2.2

     total cpu time spent up to now is    11377.6 secs

     total energy              =    -442.38047840 Ry
     Harris-Foulkes estimate   =    -442.38047847 Ry
     estimated scf accuracy    <       0.00000017 Ry

     iteration #  6     ecut=    25.00 Ry     beta= 0.70
     Davidson diagonalization with overlap
     ethr =  3.25E-10,  avg # of iterations =  2.0

     total cpu time spent up to now is    11472.1 secs

     total energy              =    -442.38047844 Ry
     Harris-Foulkes estimate   =    -442.38047844 Ry
     estimated scf accuracy    <       0.00000001 Ry

     iteration #  7     ecut=    25.00 Ry     beta= 0.70
     Davidson diagonalization with overlap
     ethr =  1.94E-11,  avg # of iterations =  2.0

     total cpu time spent up to now is    11569.6 secs

     total energy              =    -442.38047844 Ry
     Harris-Foulkes estimate   =    -442.38047844 Ry
     estimated scf accuracy    <          2.3E-10 Ry

     iteration #  8     ecut=    25.00 Ry     beta= 0.70
     Davidson diagonalization with overlap
     ethr =  4.38E-13,  avg # of iterations =  2.7

     total cpu time spent up to now is    11668.8 secs

     total energy              =    -442.38047844 Ry
     Harris-Foulkes estimate   =    -442.38047844 Ry
     estimated scf accuracy    <          3.4E-11 Ry

     iteration #  9     ecut=    25.00 Ry     beta= 0.70
     Davidson diagonalization with overlap
     ethr =  1.00E-13,  avg # of iterations =  2.6

     total cpu time spent up to now is    11758.9 secs

     total energy              =    -442.38047844 Ry
     Harris-Foulkes estimate   =    -442.38047844 Ry
     estimated scf accuracy    <          2.9E-12 Ry

     iteration # 10     ecut=    25.00 Ry     beta= 0.70
     Davidson diagonalization with overlap
     ethr =  1.00E-13,  avg # of iterations =  1.0

     total cpu time spent up to now is    11826.7 secs

     End of self-consistent calculation

     Number of k-points >= 100: set verbosity='high' to print the bands.

     highest occupied level (ev):    24.7828

!    total energy              =    -442.38047844 Ry
     Harris-Foulkes estimate   =    -442.38047844 Ry
     estimated scf accuracy    <          1.0E-13 Ry

     The total energy is the sum of the following terms:

     one-electron contribution =      -5.79089921 Ry
     hartree contribution      =      69.29811538 Ry
     xc contribution           =    -125.63814550 Ry
     ewald contribution        =    -380.24954912 Ry

     convergence has been achieved in  10 iterations

     Forces acting on atoms (cartesian axes, Ry/au):

     atom    1 type  1   force =    -0.07591091   -0.07591091    0.00000000
     atom    2 type  1   force =    -0.01493894   -0.01493894    0.00000000
     atom    3 type  2   force =    -0.00432058   -0.01300849    0.00000000
     atom    4 type  2   force =    -0.01300849   -0.00432058    0.00000000
     atom    5 type  2   force =     0.05918124    0.05918124    0.00000000
     atom    6 type  2   force =     0.04899768    0.04899768    0.00000000

     Total force =     0.155414     Total SCF correction =     0.000001


     Computing stress (Cartesian axis) and pressure

          total   stress  (Ry/bohr**3)                   (kbar)     P=   19.68
  -0.00003780   0.00002169   0.00000000         -5.56      3.19      0.00
   0.00002169  -0.00003780   0.00000000          3.19     -5.56      0.00
   0.00000000   0.00000000   0.00047686          0.00      0.00     70.15


     number of scf cycles    =   9
     number of bfgs steps    =   6

     enthalpy old            =    -442.3814968953 Ry
     enthalpy new            =    -442.3804784375 Ry

     CASE: enthalpy_new > enthalpy_old

     new trust radius        =       0.0110465449 bohr
     new conv_thr            =            1.0E-12 Ry

     new unit-cell volume =    257.96784 a.u.^3 (    38.22689 Ang^3 )
     density =     13.09322 g/cm^3

CELL_PARAMETERS (alat=  9.11000000)
   0.792466479   0.000000000   0.000000000
   0.000000000   0.792466479   0.000000000
   0.000000000   0.000000000   0.543311166

ATOMIC_POSITIONS (crystal)
Sn      -0.000039186  -0.000039186   0.000000000
Sn       0.500015472   0.500015472   0.500000000
O        0.800823003   0.197703995   0.500000000
O        0.197703995   0.800823003   0.500000000
O        0.301322513   0.301322513   0.000000000
O        0.698174203   0.698174203   0.000000000



     Writing output data file SnO2.save
     NEW-OLD atomic charge density approx. for the potential

     Check: negative/imaginary core charge=   -0.000739    0.000000
     extrapolated charge   52.04645, renormalised to   52.00000

     total cpu time spent up to now is    11853.7 secs

     Self-consistent Calculation

     iteration #  1     ecut=    25.00 Ry     beta= 0.70
     Davidson diagonalization with overlap
     ethr =  1.00E-06,  avg # of iterations =  4.0

     total cpu time spent up to now is    12007.8 secs

     total energy              =    -442.38213717 Ry
     Harris-Foulkes estimate   =    -442.34171404 Ry
     estimated scf accuracy    <       0.00024275 Ry

     iteration #  2     ecut=    25.00 Ry     beta= 0.70
     Davidson diagonalization with overlap
     ethr =  4.67E-07,  avg # of iterations =  2.0

     total cpu time spent up to now is    12107.0 secs

     total energy              =    -442.38222679 Ry
     Harris-Foulkes estimate   =    -442.38225439 Ry
     estimated scf accuracy    <       0.00005807 Ry

     iteration #  3     ecut=    25.00 Ry     beta= 0.70
     Davidson diagonalization with overlap
     ethr =  1.12E-07,  avg # of iterations =  2.0

     total cpu time spent up to now is    12195.7 secs

     total energy              =    -442.38223554 Ry
     Harris-Foulkes estimate   =    -442.38223610 Ry
     estimated scf accuracy    <       0.00000338 Ry

     iteration #  4     ecut=    25.00 Ry     beta= 0.70
     Davidson diagonalization with overlap
     ethr =  6.51E-09,  avg # of iterations =  2.0

     total cpu time spent up to now is    12294.9 secs

     total energy              =    -442.38223618 Ry
     Harris-Foulkes estimate   =    -442.38223671 Ry
     estimated scf accuracy    <       0.00000100 Ry

     iteration #  5     ecut=    25.00 Ry     beta= 0.70
     Davidson diagonalization with overlap
     ethr =  1.92E-09,  avg # of iterations =  2.2

     total cpu time spent up to now is    12389.9 secs

     total energy              =    -442.38223643 Ry
     Harris-Foulkes estimate   =    -442.38223646 Ry
     estimated scf accuracy    <       0.00000006 Ry

     iteration #  6     ecut=    25.00 Ry     beta= 0.70
     Davidson diagonalization with overlap
     ethr =  1.15E-10,  avg # of iterations =  2.0

     total cpu time spent up to now is    12484.6 secs

     total energy              =    -442.38223644 Ry
     Harris-Foulkes estimate   =    -442.38223645 Ry
     estimated scf accuracy    <          3.7E-09 Ry

     iteration #  7     ecut=    25.00 Ry     beta= 0.70
     Davidson diagonalization with overlap
     ethr =  7.08E-12,  avg # of iterations =  2.0

     total cpu time spent up to now is    12582.0 secs

     total energy              =    -442.38223645 Ry
     Harris-Foulkes estimate   =    -442.38223645 Ry
     estimated scf accuracy    <          1.0E-10 Ry

     iteration #  8     ecut=    25.00 Ry     beta= 0.70
     Davidson diagonalization with overlap
     ethr =  1.94E-13,  avg # of iterations =  2.9

     total cpu time spent up to now is    12680.1 secs

     total energy              =    -442.38223645 Ry
     Harris-Foulkes estimate   =    -442.38223645 Ry
     estimated scf accuracy    <          1.6E-11 Ry

     iteration #  9     ecut=    25.00 Ry     beta= 0.70
     Davidson diagonalization with overlap
     ethr =  1.00E-13,  avg # of iterations =  2.0

     total cpu time spent up to now is    12758.7 secs

     End of self-consistent calculation

     Number of k-points >= 100: set verbosity='high' to print the bands.

     highest occupied level (ev):    24.7489

!    total energy              =    -442.38223645 Ry
     Harris-Foulkes estimate   =    -442.38223645 Ry
     estimated scf accuracy    <          9.4E-13 Ry

     The total energy is the sum of the following terms:

     one-electron contribution =      -5.94028441 Ry
     hartree contribution      =      69.32210559 Ry
     xc contribution           =    -125.62732709 Ry
     ewald contribution        =    -380.13673054 Ry

     convergence has been achieved in   9 iterations

     Forces acting on atoms (cartesian axes, Ry/au):

     atom    1 type  1   force =    -0.00276487   -0.00276487    0.00000000
     atom    2 type  1   force =    -0.00072985   -0.00072985    0.00000000
     atom    3 type  2   force =     0.00505050   -0.00863431    0.00000000
     atom    4 type  2   force =    -0.00863431    0.00505050    0.00000000
     atom    5 type  2   force =     0.00997432    0.00997432    0.00000000
     atom    6 type  2   force =    -0.00289578   -0.00289578    0.00000000

     Total force =     0.020790     Total SCF correction =     0.000002


     Computing stress (Cartesian axis) and pressure

          total   stress  (Ry/bohr**3)                   (kbar)     P=   -9.59
  -0.00025582  -0.00000187   0.00000000        -37.63     -0.28      0.00
  -0.00000187  -0.00025582   0.00000000         -0.28    -37.63      0.00
   0.00000000   0.00000000   0.00031602          0.00      0.00     46.49


     number of scf cycles    =  10
     number of bfgs steps    =   6

     enthalpy old            =    -442.3814968953 Ry
     enthalpy new            =    -442.3822364454 Ry

     CASE: enthalpy_new < enthalpy_old

     new trust radius        =       0.0117270332 bohr
     new conv_thr            =            1.0E-12 Ry

     new unit-cell volume =    257.74182 a.u.^3 (    38.19340 Ang^3 )
     density =     13.10470 g/cm^3

CELL_PARAMETERS (alat=  9.11000000)
   0.790681151   0.000000000   0.000000000
   0.000000000   0.790681151   0.000000000
   0.000000000   0.000000000   0.545289324

ATOMIC_POSITIONS (crystal)
Sn      -0.000042562  -0.000042562   0.000000000
Sn       0.499989372   0.499989372   0.500000000
O        0.801708770   0.196537100   0.500000000
O        0.196537100   0.801708770   0.500000000
O        0.302471126   0.302471126   0.000000000
O        0.697336193   0.697336193   0.000000000



     Writing output data file SnO2.save
     NEW-OLD atomic charge density approx. for the potential

     Check: negative/imaginary core charge=   -0.000739    0.000000
     extrapolated charge   51.95440, renormalised to   52.00000

     total cpu time spent up to now is    12786.1 secs

     Self-consistent Calculation

     iteration #  1     ecut=    25.00 Ry     beta= 0.70
     Davidson diagonalization with overlap
     ethr =  1.00E-06,  avg # of iterations =  4.0

     total cpu time spent up to now is    12932.8 secs

     total energy              =    -442.38244568 Ry
     Harris-Foulkes estimate   =    -442.42217748 Ry
     estimated scf accuracy    <       0.00021170 Ry

     iteration #  2     ecut=    25.00 Ry     beta= 0.70
     Davidson diagonalization with overlap
     ethr =  4.07E-07,  avg # of iterations =  2.0

     total cpu time spent up to now is    13032.0 secs

     total energy              =    -442.38253886 Ry
     Harris-Foulkes estimate   =    -442.38256313 Ry
     estimated scf accuracy    <       0.00004897 Ry

     iteration #  3     ecut=    25.00 Ry     beta= 0.70
     Davidson diagonalization with overlap
     ethr =  9.42E-08,  avg # of iterations =  2.0

     total cpu time spent up to now is    13118.6 secs

     total energy              =    -442.38254485 Ry
     Harris-Foulkes estimate   =    -442.38254523 Ry
     estimated scf accuracy    <       0.00000220 Ry

     iteration #  4     ecut=    25.00 Ry     beta= 0.70
     Davidson diagonalization with overlap
     ethr =  4.23E-09,  avg # of iterations =  2.0

     total cpu time spent up to now is    13215.6 secs

     total energy              =    -442.38254527 Ry
     Harris-Foulkes estimate   =    -442.38254536 Ry
     estimated scf accuracy    <       0.00000018 Ry

     iteration #  5     ecut=    25.00 Ry     beta= 0.70
     Davidson diagonalization with overlap
     ethr =  3.48E-10,  avg # of iterations =  2.0

     total cpu time spent up to now is    13313.0 secs

     total energy              =    -442.38254531 Ry
     Harris-Foulkes estimate   =    -442.38254532 Ry
     estimated scf accuracy    <       0.00000003 Ry

     iteration #  6     ecut=    25.00 Ry     beta= 0.70
     Davidson diagonalization with overlap
     ethr =  5.85E-11,  avg # of iterations =  2.0

     total cpu time spent up to now is    13409.5 secs

     total energy              =    -442.38254531 Ry
     Harris-Foulkes estimate   =    -442.38254532 Ry
     estimated scf accuracy    <          3.3E-09 Ry

     iteration #  7     ecut=    25.00 Ry     beta= 0.70
     Davidson diagonalization with overlap
     ethr =  6.33E-12,  avg # of iterations =  2.0

     total cpu time spent up to now is    13500.2 secs

     total energy              =    -442.38254532 Ry
     Harris-Foulkes estimate   =    -442.38254532 Ry
     estimated scf accuracy    <          5.5E-11 Ry

     iteration #  8     ecut=    25.00 Ry     beta= 0.70
     Davidson diagonalization with overlap
     ethr =  1.07E-13,  avg # of iterations =  2.0

     total cpu time spent up to now is    13599.6 secs

     total energy              =    -442.38254532 Ry
     Harris-Foulkes estimate   =    -442.38254532 Ry
     estimated scf accuracy    <          2.5E-12 Ry

     iteration #  9     ecut=    25.00 Ry     beta= 0.70
[...]

     iteration #  6     ecut=    25.00 Ry     beta= 0.70
     Davidson diagonalization with overlap
     ethr =  1.18E-09,  avg # of iterations =  2.2

     total cpu time spent up to now is    49464.6 secs

     total energy              =    -442.65135586 Ry
     Harris-Foulkes estimate   =    -442.65135589 Ry
     estimated scf accuracy    <       0.00000006 Ry

     iteration #  7     ecut=    25.00 Ry     beta= 0.70
     Davidson diagonalization with overlap
     ethr =  1.16E-10,  avg # of iterations =  2.8

     total cpu time spent up to now is    49573.3 secs

     total energy              =    -442.65135587 Ry
     Harris-Foulkes estimate   =    -442.65135588 Ry
     estimated scf accuracy    <          9.5E-09 Ry

     iteration #  8     ecut=    25.00 Ry     beta= 0.70
     Davidson diagonalization with overlap
     ethr =  1.82E-11,  avg # of iterations =  2.7

     total cpu time spent up to now is    49666.9 secs

     total energy              =    -442.65135587 Ry
     Harris-Foulkes estimate   =    -442.65135587 Ry
     estimated scf accuracy    <          1.7E-10 Ry

     iteration #  9     ecut=    25.00 Ry     beta= 0.70
     Davidson diagonalization with overlap
     ethr =  3.30E-13,  avg # of iterations =  2.4

     total cpu time spent up to now is    49772.8 secs

     total energy              =    -442.65135587 Ry
     Harris-Foulkes estimate   =    -442.65135587 Ry
     estimated scf accuracy    <          1.0E-11 Ry

     iteration # 10     ecut=    25.00 Ry     beta= 0.70
     Davidson diagonalization with overlap
     ethr =  1.00E-13,  avg # of iterations =  1.1

     total cpu time spent up to now is    49844.4 secs

     End of self-consistent calculation

     Number of k-points >= 100: set verbosity='high' to print the bands.

     highest occupied level (ev):    25.7271

!    total energy              =    -442.65135587 Ry
     Harris-Foulkes estimate   =    -442.65135587 Ry
     estimated scf accuracy    <          4.3E-13 Ry

     The total energy is the sum of the following terms:

     one-electron contribution =       9.83339965 Ry
     hartree contribution      =      63.02258537 Ry
     xc contribution           =    -125.32088605 Ry
     ewald contribution        =    -390.18645484 Ry

     convergence has been achieved in  10 iterations

     Forces acting on atoms (cartesian axes, Ry/au):

     atom    1 type  1   force =     0.06637108    0.06637108    0.00000000
     atom    2 type  1   force =    -0.02263745   -0.02263745    0.00000000
     atom    3 type  2   force =    -0.03931655   -0.03165825    0.00000000
     atom    4 type  2   force =    -0.03165825   -0.03931655    0.00000000
     atom    5 type  2   force =    -0.09909584   -0.09909584    0.00000000
     atom    6 type  2   force =     0.12633701    0.12633701    0.00000000

     Total force =     0.257863     Total SCF correction =     0.000003


     Computing stress (Cartesian axis) and pressure

          total   stress  (Ry/bohr**3)                   (kbar)     P= -156.24
  -0.00109740   0.00625946   0.00000000       -161.43    920.80      0.00
   0.00625946  -0.00109740   0.00000000        920.80   -161.43      0.00
   0.00000000   0.00000000  -0.00099157          0.00      0.00   -145.87


     number of scf cycles    =  48
     number of bfgs steps    =  40

     enthalpy old            =    -442.6404414331 Ry
     enthalpy new            =    -442.6513558748 Ry

     CASE: enthalpy_new < enthalpy_old

     new trust radius        =       0.0393982007 bohr
     new conv_thr            =            1.0E-12 Ry

     new unit-cell volume =    251.43928 a.u.^3 (    37.25946 Ang^3 )
     density =     13.43318 g/cm^3

CELL_PARAMETERS (alat=  9.11000000)
   0.781360390   0.000000000   0.000000000
   0.000000000   0.781360390   0.000000000
   0.000000000   0.000000000   0.544722371

ATOMIC_POSITIONS (crystal)
Sn       0.044985172   0.044985172   0.000000000
Sn       0.553751941   0.553751941   0.500000000
O        0.708442994   0.118062618   0.500000000
O        0.118062618   0.708442994   0.500000000
O        0.345095205   0.345095205   0.000000000
O        0.727662070   0.727662070   0.000000000



     Writing output data file SnO2.save
     NEW-OLD atomic charge density approx. for the potential

     Check: negative/imaginary core charge=   -0.000687    0.000000
     extrapolated charge   51.84617, renormalised to   52.00000

     total cpu time spent up to now is    49872.9 secs

     Self-consistent Calculation

     iteration #  1     ecut=    25.00 Ry     beta= 0.70
     Davidson diagonalization with overlap
     ethr =  1.00E-06,  avg # of iterations =  5.1

     total cpu time spent up to now is    50055.2 secs

     total energy              =    -442.66106925 Ry
     Harris-Foulkes estimate   =    -442.75740762 Ry
     estimated scf accuracy    <       0.00172687 Ry

     iteration #  2     ecut=    25.00 Ry     beta= 0.70
     Davidson diagonalization with overlap
     ethr =  3.32E-06,  avg # of iterations =  3.0

     total cpu time spent up to now is    50171.1 secs

     total energy              =    -442.66189142 Ry
     Harris-Foulkes estimate   =    -442.66239254 Ry
     estimated scf accuracy    <       0.00101834 Ry

     iteration #  3     ecut=    25.00 Ry     beta= 0.70
     Davidson diagonalization with overlap
     ethr =  1.96E-06,  avg # of iterations =  2.1

     total cpu time spent up to now is    50263.3 secs

     total energy              =    -442.66203065 Ry
     Harris-Foulkes estimate   =    -442.66204983 Ry
     estimated scf accuracy    <       0.00005070 Ry

     iteration #  4     ecut=    25.00 Ry     beta= 0.70
     Davidson diagonalization with overlap
     ethr =  9.75E-08,  avg # of iterations =  2.0

     total cpu time spent up to now is    50366.6 secs

     total energy              =    -442.66204054 Ry
     Harris-Foulkes estimate   =    -442.66204460 Ry
     estimated scf accuracy    <       0.00000839 Ry

     iteration #  5     ecut=    25.00 Ry     beta= 0.70
     Davidson diagonalization with overlap
     ethr =  1.61E-08,  avg # of iterations =  3.1

     total cpu time spent up to now is    50473.1 secs

     total energy              =    -442.66204270 Ry
     Harris-Foulkes estimate   =    -442.66204319 Ry
     estimated scf accuracy    <       0.00000101 Ry

     iteration #  6     ecut=    25.00 Ry     beta= 0.70
     Davidson diagonalization with overlap
     ethr =  1.94E-09,  avg # of iterations =  2.3

     total cpu time spent up to now is    50566.9 secs

     total energy              =    -442.66204289 Ry
     Harris-Foulkes estimate   =    -442.66204292 Ry
     estimated scf accuracy    <       0.00000008 Ry

     iteration #  7     ecut=    25.00 Ry     beta= 0.70
     Davidson diagonalization with overlap
     ethr =  1.46E-10,  avg # of iterations =  3.0

     total cpu time spent up to now is    50676.3 secs

     total energy              =    -442.66204290 Ry
     Harris-Foulkes estimate   =    -442.66204291 Ry
     estimated scf accuracy    <       0.00000001 Ry

     iteration #  8     ecut=    25.00 Ry     beta= 0.70
     Davidson diagonalization with overlap
     ethr =  2.72E-11,  avg # of iterations =  2.7

     total cpu time spent up to now is    50769.9 secs

     total energy              =    -442.66204291 Ry
     Harris-Foulkes estimate   =    -442.66204291 Ry
     estimated scf accuracy    <          2.0E-10 Ry

     iteration #  9     ecut=    25.00 Ry     beta= 0.70
     Davidson diagonalization with overlap
     ethr =  3.78E-13,  avg # of iterations =  2.8

     total cpu time spent up to now is    50880.0 secs

     total energy              =    -442.66204291 Ry
     Harris-Foulkes estimate   =    -442.66204291 Ry
     estimated scf accuracy    <          1.2E-11 Ry

     iteration # 10     ecut=    25.00 Ry     beta= 0.70
     Davidson diagonalization with overlap
     ethr =  1.00E-13,  avg # of iterations =  1.2

     total cpu time spent up to now is    50951.8 secs

     End of self-consistent calculation

     Number of k-points >= 100: set verbosity='high' to print the bands.

     highest occupied level (ev):    25.8558

!    total energy              =    -442.66204291 Ry
     Harris-Foulkes estimate   =    -442.66204291 Ry
     estimated scf accuracy    <          3.9E-13 Ry

     The total energy is the sum of the following terms:

     one-electron contribution =      11.21092678 Ry
     hartree contribution      =      62.51115050 Ry
     xc contribution           =    -125.32565183 Ry
     ewald contribution        =    -391.05846836 Ry

     convergence has been achieved in  10 iterations

     Forces acting on atoms (cartesian axes, Ry/au):

     atom    1 type  1   force =     0.01913584    0.01913584    0.00000000
     atom    2 type  1   force =    -0.00150661   -0.00150661    0.00000000
     atom    3 type  2   force =    -0.01677646   -0.02367745    0.00000000
     atom    4 type  2   force =    -0.02367745   -0.01677646    0.00000000
     atom    5 type  2   force =    -0.05848039   -0.05848039    0.00000000
     atom    6 type  2   force =     0.08130506    0.08130506    0.00000000

     Total force =     0.149940     Total SCF correction =     0.000002


     Computing stress (Cartesian axis) and pressure

          total   stress  (Ry/bohr**3)                   (kbar)     P=  -90.03
  -0.00079188   0.00664475   0.00000000       -116.49    977.48      0.00
   0.00664475  -0.00079188   0.00000000        977.48   -116.49      0.00
   0.00000000   0.00000000  -0.00025221          0.00      0.00    -37.10


     number of scf cycles    =  49
     number of bfgs steps    =  41

     enthalpy old            =    -442.6513558748 Ry
     enthalpy new            =    -442.6620429059 Ry

     CASE: enthalpy_new < enthalpy_old

     new trust radius        =       0.0591501311 bohr
     new conv_thr            =            1.0E-12 Ry

     new unit-cell volume =    250.01574 a.u.^3 (    37.04851 Ang^3 )
     density =     13.50967 g/cm^3

CELL_PARAMETERS (alat=  9.11000000)
   0.779859589   0.000000000   0.000000000
   0.000000000   0.779859589   0.000000000
   0.000000000   0.000000000   0.543725112

ATOMIC_POSITIONS (crystal)
Sn       0.045836828   0.045836828   0.000000000
Sn       0.557685513   0.557685513   0.500000000
O        0.702417147   0.114879059   0.500000000
O        0.114879059   0.702417147   0.500000000
O        0.343643530   0.343643530   0.000000000
O        0.733537923   0.733537923   0.000000000



     Writing output data file SnO2.save
     NEW-OLD atomic charge density approx. for the potential

     Check: negative/imaginary core charge=   -0.000684    0.000000

     negative rho (up, down):  2.501E-05 0.000E+00
     extrapolated charge   51.70394, renormalised to   52.00000

     total cpu time spent up to now is    50979.4 secs

     Self-consistent Calculation

     iteration #  1     ecut=    25.00 Ry     beta= 0.70
     Davidson diagonalization with overlap
     ethr =  1.00E-06,  avg # of iterations =  5.9

     total cpu time spent up to now is    51171.7 secs

     total energy              =    -442.66250172 Ry
     Harris-Foulkes estimate   =    -442.84229879 Ry
     estimated scf accuracy    <       0.00464796 Ry

     iteration #  2     ecut=    25.00 Ry     beta= 0.70
     Davidson diagonalization with overlap
     ethr =  8.94E-06,  avg # of iterations =  3.0

     total cpu time spent up to now is    51290.1 secs

     total energy              =    -442.66535125 Ry
     Harris-Foulkes estimate   =    -442.66705901 Ry
     estimated scf accuracy    <       0.00359731 Ry

     iteration #  3     ecut=    25.00 Ry     beta= 0.70
     Davidson diagonalization with overlap
     ethr =  6.92E-06,  avg # of iterations =  2.0

     total cpu time spent up to now is    51378.4 secs

     total energy              =    -442.66573787 Ry
     Harris-Foulkes estimate   =    -442.66584834 Ry
     estimated scf accuracy    <       0.00024164 Ry

     iteration #  4     ecut=    25.00 Ry     beta= 0.70
     Davidson diagonalization with overlap
     ethr =  4.65E-07,  avg # of iterations =  2.0

     total cpu time spent up to now is    51481.4 secs

     total energy              =    -442.66577142 Ry
     Harris-Foulkes estimate   =    -442.66579625 Ry
     estimated scf accuracy    <       0.00004804 Ry

     iteration #  5     ecut=    25.00 Ry     beta= 0.70
     Davidson diagonalization with overlap
     ethr =  9.24E-08,  avg # of iterations =  2.8

     total cpu time spent up to now is    51587.2 secs

     total energy              =    -442.66578402 Ry
     Harris-Foulkes estimate   =    -442.66578627 Ry
     estimated scf accuracy    <       0.00000467 Ry

     iteration #  6     ecut=    25.00 Ry     beta= 0.70
     Davidson diagonalization with overlap
     ethr =  8.97E-09,  avg # of iterations =  2.3

     total cpu time spent up to now is    51680.8 secs

     total energy              =    -442.66578485 Ry
     Harris-Foulkes estimate   =    -442.66578507 Ry
     estimated scf accuracy    <       0.00000046 Ry

     iteration #  7     ecut=    25.00 Ry     beta= 0.70
     Davidson diagonalization with overlap
     ethr =  8.82E-10,  avg # of iterations =  2.8

     total cpu time spent up to now is    51787.8 secs

     total energy              =    -442.66578494 Ry
     Harris-Foulkes estimate   =    -442.66578497 Ry
     estimated scf accuracy    <       0.00000006 Ry

     iteration #  8     ecut=    25.00 Ry     beta= 0.70
     Davidson diagonalization with overlap
     ethr =  1.09E-10,  avg # of iterations =  2.5

     total cpu time spent up to now is    51882.6 secs

     total energy              =    -442.66578495 Ry
     Harris-Foulkes estimate   =    -442.66578495 Ry
     estimated scf accuracy    <          8.0E-10 Ry

     iteration #  9     ecut=    25.00 Ry     beta= 0.70
     Davidson diagonalization with overlap
     ethr =  1.53E-12,  avg # of iterations =  2.9

     total cpu time spent up to now is    51995.7 secs

     total energy              =    -442.66578495 Ry
     Harris-Foulkes estimate   =    -442.66578495 Ry
     estimated scf accuracy    <          4.9E-11 Ry

     iteration # 10     ecut=    25.00 Ry     beta= 0.70
     Davidson diagonalization with overlap
     ethr =  1.00E-13,  avg # of iterations =  2.3

     total cpu time spent up to now is    52091.3 secs

     total energy              =    -442.66578495 Ry
     Harris-Foulkes estimate   =    -442.66578495 Ry
     estimated scf accuracy    <          2.4E-12 Ry

     iteration # 11     ecut=    25.00 Ry     beta= 0.70
     Davidson diagonalization with overlap
     ethr =  1.00E-13,  avg # of iterations =  1.0

     total cpu time spent up to now is    52163.3 secs

     End of self-consistent calculation

     Number of k-points >= 100: set verbosity='high' to print the bands.

     highest occupied level (ev):    26.1170

!    total energy              =    -442.66578495 Ry
     Harris-Foulkes estimate   =    -442.66578495 Ry
     estimated scf accuracy    <          1.1E-13 Ry

     The total energy is the sum of the following terms:

     one-electron contribution =      13.11114664 Ry
     hartree contribution      =      61.89816537 Ry
     xc contribution           =    -125.35148698 Ry
     ewald contribution        =    -392.32360998 Ry

     convergence has been achieved in  11 iterations

     Forces acting on atoms (cartesian axes, Ry/au):

     atom    1 type  1   force =     0.02764485    0.02764485    0.00000000
     atom    2 type  1   force =    -0.03647720   -0.03647720    0.00000000
     atom    3 type  2   force =    -0.00662592    0.01678067    0.00000000
     atom    4 type  2   force =     0.01678067   -0.00662592    0.00000000
     atom    5 type  2   force =     0.01787240    0.01787240    0.00000000
     atom    6 type  2   force =    -0.01919480   -0.01919480    0.00000000

     Total force =     0.078844     Total SCF correction =     0.000000


     Computing stress (Cartesian axis) and pressure

          total   stress  (Ry/bohr**3)                   (kbar)     P=   38.03
   0.00039494   0.00736710   0.00000000         58.10   1083.74      0.00
   0.00736710   0.00039494   0.00000000       1083.74     58.10      0.00
   0.00000000   0.00000000  -0.00001430          0.00      0.00     -2.10


     number of scf cycles    =  50
     number of bfgs steps    =  42

     enthalpy old            =    -442.6620429059 Ry
     enthalpy new            =    -442.6657849515 Ry

     CASE: enthalpy_new < enthalpy_old

     new trust radius        =       0.0278874939 bohr
     new conv_thr            =            1.0E-12 Ry

     new unit-cell volume =    250.40270 a.u.^3 (    37.10585 Ang^3 )
     density =     13.48879 g/cm^3

CELL_PARAMETERS (alat=  9.11000000)
   0.781218816   0.000000000   0.000000000
   0.000000000   0.781218816   0.000000000
   0.000000000   0.000000000   0.542673342

ATOMIC_POSITIONS (crystal)
Sn       0.047178850   0.047178850   0.000000000
Sn       0.554909895   0.554909895   0.500000000
O        0.702976695   0.115823623   0.500000000
O        0.115823623   0.702976695   0.500000000
O        0.344062035   0.344062035   0.000000000
O        0.733048901   0.733048901   0.000000000



     Writing output data file SnO2.save
     NEW-OLD atomic charge density approx. for the potential

     Check: negative/imaginary core charge=   -0.000686    0.000000
     extrapolated charge   52.08035, renormalised to   52.00000

     Writing output data file SnO2.save
 
     init_run     :     28.50s CPU     33.68s WALL (       1 calls)
     electrons    :  43667.31s CPU  50796.03s WALL (      50 calls)
     update_pot   :     22.33s CPU     22.46s WALL (      50 calls)
     forces       :    372.91s CPU    383.20s WALL (      50 calls)
     stress       :    878.56s CPU    931.23s WALL (      50 calls)

     Called by init_run:
     wfcinit      :     28.08s CPU     33.24s WALL (       1 calls)
     potinit      :      0.12s CPU      0.13s WALL (       1 calls)
     hinit0       :      0.28s CPU      0.29s WALL (       1 calls)

     Called by electrons:
     c_bands      :  39872.76s CPU  46777.92s WALL (     501 calls)
     sum_band     :   3790.15s CPU   4012.38s WALL (     501 calls)
     v_of_rho     :      3.50s CPU      3.56s WALL (     542 calls)
     mix_rho      :      0.91s CPU      1.06s WALL (     501 calls)

     Called by c_bands:
     init_us_2    :    608.74s CPU    740.30s WALL ( 1346763 calls)
     cegterg      :  36433.57s CPU  43286.70s WALL (  611721 calls)

     Called by sum_band:

     Called by *egterg:
     h_psi        :  26141.67s CPU  32295.94s WALL ( 2101971 calls)
     g_psi        :    213.56s CPU    233.14s WALL ( 1489029 calls)
     cdiaghg      :   4233.87s CPU   4446.84s WALL ( 2028711 calls)

     Called by h_psi:
     h_psi:pot    :  25963.20s CPU  32011.13s WALL ( 2101971 calls)
     h_psi:calbec :   2703.22s CPU   2554.99s WALL ( 2101971 calls)
     vloc_psi     :  21592.96s CPU  26820.46s WALL ( 2101971 calls)
     add_vuspsi   :   1661.23s CPU   2621.56s WALL ( 2101971 calls)

     General routines
     calbec       :   3121.79s CPU   2883.93s WALL ( 2407221 calls)
     fft          :      2.15s CPU      2.18s WALL (    6732 calls)
     ffts         :      0.15s CPU      0.17s WALL (     501 calls)
     fftw         :  24590.42s CPU  28279.23s WALL (******** calls)
     davcio       :      0.00s CPU      0.24s WALL (    1221 calls)
 
     Parallel routines
     fft_scatt_xy :    487.99s CPU   2101.56s WALL (******** calls)
     fft_scatt_yz :  19661.91s CPU   3745.93s WALL (******** calls)
 
     PWSCF        :    12h29m CPU       14h30m WALL

 
   This run was terminated on:  13:24:46  10Apr2018            

=------------------------------------------------------------------------------=
   JOB DONE.
=------------------------------------------------------------------------------=
