
     Program PHONON v.6.2.2 starts on  9May2018 at 13: 2: 2 

     This program is part of the open-source Quantum ESPRESSO suite
     for quantum simulation of materials; please cite
         "P. Giannozzi et al., J. Phys.:Condens. Matter 21 395502 (2009);
         "P. Giannozzi et al., J. Phys.:Condens. Matter 29 465901 (2017);
          URL http://www.quantum-espresso.org", 
     in publications or presentations arising from this work. More details at
     http://www.quantum-espresso.org/quote

     Parallel version (MPI), running on    32 processors

     MPI processes distributed on     3 nodes
     R & G space division:  proc/nbgrp/npool/nimage =      32

     Reading data from directory:
     ./epw.save/

     IMPORTANT: XC functional enforced from input :
     Exchange-correlation      = PBE ( 1  4  3  4 0 0)
     Any further DFT definition will be discarded
     Please, verify this is what you really want

 
     Parallelization info
     --------------------
     sticks:   dense  smooth     PW     G-vecs:    dense   smooth      PW
     Min          62      62     18                 1404     1404     223
     Max          63      63     20                 1405     1405     225
     Sum        2001    2001    593                44945    44945    7155
 

     Check: negative/imaginary core charge=   -0.000002    0.000000


     Dynamical matrices for ( 3, 3, 3)  uniform grid of q-points
     (   8 q-points):
       N         xq(1)         xq(2)         xq(3) 
       1   0.000000000   0.000000000   0.000000000
       2   0.000000000   0.000000000   0.496328851
       3   0.000000000   0.333333333   0.000000000
       4   0.000000000   0.333333333   0.496328851
       5   0.333333333   0.333333333   0.000000000
       6   0.333333333   0.333333333   0.496328851
       7   0.333333333  -0.333333333   0.000000000
       8   0.333333333  -0.333333333   0.496328851

     Calculation of q =    0.0000000   0.0000000   0.0000000

     Phonon dispersions for SnO2                                                

     bravais-lattice index     =            6
     lattice parameter (alat)  =       9.1370  a.u.
     unit-cell volume          =     512.3005 (a.u.)^3
     number of atoms/cell      =            6
     number of atomic types    =            2
     kinetic-energy cut-off    =      75.0000  Ry
     charge density cut-off    =     300.0000  Ry
     convergence threshold     =      1.0E-14
     beta                      =       0.7000
     number of iterations used =            4
     Exchange-correlation      = PBE ( 1  4  3  4 0 0)


     celldm(1)=    9.13703  celldm(2)=    1.00000  celldm(3)=    0.67160
     celldm(4)=    0.00000  celldm(5)=    0.00000  celldm(6)=    0.00000

     crystal axes: (cart. coord. in units of alat)
               a(1) = (  1.0000  0.0000  0.0000 )  
               a(2) = (  0.0000  1.0000  0.0000 )  
               a(3) = (  0.0000  0.0000  0.6716 )  

     reciprocal axes: (cart. coord. in units 2 pi/alat)
               b(1) = (  1.0000  0.0000  0.0000 )  
               b(2) = (  0.0000  1.0000  0.0000 )  
               b(3) = (  0.0000  0.0000  1.4890 )  


     Atoms inside the unit cell: 

     Cartesian axes

     site n.  atom      mass           positions (alat units)
        1     Sn 118.7100   tau(    1) = (   -0.00033   -0.00033    0.00000  )
        2     Sn 118.7100   tau(    2) = (    0.49967    0.49967    0.33580  )
        3     O   15.9990   tau(    3) = (    0.80637    0.19296    0.33580  )
        4     O   15.9990   tau(    4) = (    0.19296    0.80637    0.33580  )
        5     O   15.9990   tau(    5) = (    0.30637    0.30637    0.00000  )
        6     O   15.9990   tau(    6) = (    0.69296    0.69296    0.00000  )

     Computing dynamical matrix for 
                    q = (   0.0000000   0.0000000   0.0000000 )
 
      5 Sym.Ops. (with q -> -q+G )


     G cutoff =  634.4127  (   1405 G-vectors)     FFT grid: ( 54, 54, 36)
     number of k points=    52

     PseudoPot. # 1 for Sn read from file:
     ../../Pseudo_potentials/Sn_PBE.upf
     MD5 check sum: 78e6386ae56e929f0568ae8bf606a80c
     Pseudo is Norm-conserving + core correction, Zval = 14.0
     Generated using ONCVPSP code by D. R. Hamann
     Using radial grid of 1628 points,  6 beta functions with: 
                l(1) =   0
                l(2) =   0
                l(3) =   1
                l(4) =   1
                l(5) =   2
                l(6) =   2

     PseudoPot. # 2 for O  read from file:
     ../../Pseudo_potentials/O_PBE.upf
     MD5 check sum: 3e3f909f7470e8921608ab6b1f57bbae
     Pseudo is Norm-conserving + core correction, Zval =  6.0
     Generated using ONCVPSP code by D. R. Hamann
     Using radial grid of  936 points,  5 beta functions with: 
                l(1) =   0
                l(2) =   0
                l(3) =   1
                l(4) =   1
                l(5) =   2

     Mode symmetry, C_2v (mm2)  point group:


     Electric field:
     Dielectric constant
     Born effective charges in two ways 


     Atomic displacements:
     There are  18 irreducible representations

     Representation     1      1 modes -A_1  D_1  S_1  To be done

     Representation     2      1 modes -A_1  D_1  S_1  To be done

     Representation     3      1 modes -A_1  D_1  S_1  To be done

     Representation     4      1 modes -A_1  D_1  S_1  To be done

     Representation     5      1 modes -A_1  D_1  S_1  To be done

     Representation     6      1 modes -A_1  D_1  S_1  To be done

     Representation     7      1 modes -A_2  D_2  S_2  To be done

     Representation     8      1 modes -B_1  D_3  S_3  To be done

     Representation     9      1 modes -B_1  D_3  S_3  To be done

     Representation    10      1 modes -B_1  D_3  S_3  To be done

     Representation    11      1 modes -B_1  D_3  S_3  To be done

     Representation    12      1 modes -B_1  D_3  S_3  To be done

     Representation    13      1 modes -B_1  D_3  S_3  To be done

     Representation    14      1 modes -B_2  D_4  S_4  To be done

     Representation    15      1 modes -B_2  D_4  S_4  To be done

     Representation    16      1 modes -B_2  D_4  S_4  To be done

     Representation    17      1 modes -B_2  D_4  S_4  To be done

     Representation    18      1 modes -B_2  D_4  S_4  To be done



     Alpha used in Ewald sum =   2.7000
     PHONON       :     8.81s CPU        16.93s WALL


     Electric Fields Calculation

      iter #   1 total cpu time :   563.9 secs   av.it.:   7.4
      thresh= 1.000E-02 alpha_mix =  0.700 |ddv_scf|^2 =  1.583E-08

      iter #   2 total cpu time :   811.8 secs   av.it.:  14.7
      thresh= 1.258E-05 alpha_mix =  0.700 |ddv_scf|^2 =  2.478E-08

      iter #   3 total cpu time :  1045.0 secs   av.it.:  13.0
      thresh= 1.574E-05 alpha_mix =  0.700 |ddv_scf|^2 =  1.299E-09

      iter #   4 total cpu time :  1281.3 secs   av.it.:  14.1
      thresh= 3.604E-06 alpha_mix =  0.700 |ddv_scf|^2 =  5.608E-11

      iter #   5 total cpu time :  1521.2 secs   av.it.:  14.4
      thresh= 7.489E-07 alpha_mix =  0.700 |ddv_scf|^2 =  5.647E-12

      iter #   6 total cpu time :  1753.4 secs   av.it.:  13.8
      thresh= 2.376E-07 alpha_mix =  0.700 |ddv_scf|^2 =  5.137E-14

      iter #   7 total cpu time :  2005.4 secs   av.it.:  15.2
      thresh= 2.266E-08 alpha_mix =  0.700 |ddv_scf|^2 =  1.696E-14

      iter #   8 total cpu time :  2244.3 secs   av.it.:  14.4
      thresh= 1.302E-08 alpha_mix =  0.700 |ddv_scf|^2 =  1.529E-16

     End of electric fields calculation

          Dielectric constant in cartesian axis 

          (       5.009163093       0.000000005       0.000000000 )
          (       0.000000005       5.009163093       0.000000000 )
          (       0.000000000       0.000000000       5.150111112 )

          Effective charges (d Force / dE) in cartesian axis

           atom      1   Sn 
      Ex  (        4.18113        0.56398        0.00000 )
      Ey  (        0.56398        4.18113        0.00000 )
      Ez  (        0.00000        0.00000        4.59422 )
           atom      2   Sn 
      Ex  (        4.18113       -0.56398        0.00000 )
      Ey  (       -0.56398        4.18113        0.00000 )
      Ez  (        0.00000        0.00000        4.59422 )
           atom      3   O  
      Ex  (       -2.09281        0.80753        0.00000 )
      Ey  (        0.80752       -2.09277        0.00000 )
      Ez  (        0.00000        0.00000       -2.30415 )
           atom      4   O  
      Ex  (       -2.09277        0.80752        0.00000 )
      Ey  (        0.80753       -2.09281        0.00000 )
      Ez  (        0.00000        0.00000       -2.30415 )
           atom      5   O  
      Ex  (       -2.09279       -0.80752        0.00000 )
      Ey  (       -0.80752       -2.09279        0.00000 )
      Ez  (        0.00000        0.00000       -2.30415 )
           atom      6   O  
      Ex  (       -2.09280       -0.80753        0.00000 )
      Ey  (       -0.80753       -2.09280        0.00000 )
      Ez  (        0.00000        0.00000       -2.30415 )


     Representation #  1 mode #   1

     Self-consistent Calculation

      iter #   1 total cpu time :  2414.0 secs   av.it.:   6.8
      thresh= 1.000E-02 alpha_mix =  0.700 |ddv_scf|^2 =  8.754E-07

      iter #   2 total cpu time :  2499.8 secs   av.it.:  13.5
      thresh= 9.356E-05 alpha_mix =  0.700 |ddv_scf|^2 =  2.272E-07

      iter #   3 total cpu time :  2576.0 secs   av.it.:  13.3
      thresh= 4.766E-05 alpha_mix =  0.700 |ddv_scf|^2 =  7.640E-08

      iter #   4 total cpu time :  2649.8 secs   av.it.:  12.5
      thresh= 2.764E-05 alpha_mix =  0.700 |ddv_scf|^2 =  3.198E-09

      iter #   5 total cpu time :  2725.3 secs   av.it.:  13.3
      thresh= 5.655E-06 alpha_mix =  0.700 |ddv_scf|^2 =  2.360E-11

      iter #   6 total cpu time :  2804.8 secs   av.it.:  13.8
      thresh= 4.858E-07 alpha_mix =  0.700 |ddv_scf|^2 =  1.136E-11

      iter #   7 total cpu time :  2883.5 secs   av.it.:  13.4
      thresh= 3.370E-07 alpha_mix =  0.700 |ddv_scf|^2 =  5.064E-12

      iter #   8 total cpu time :  2956.3 secs   av.it.:  12.7
      thresh= 2.250E-07 alpha_mix =  0.700 |ddv_scf|^2 =  2.211E-13

      iter #   9 total cpu time :  3032.5 secs   av.it.:  13.4
      thresh= 4.702E-08 alpha_mix =  0.700 |ddv_scf|^2 =  7.849E-15

     End of self-consistent calculation

     Convergence has been achieved 


     Representation #  2 mode #   2

     Self-consistent Calculation

      iter #   1 total cpu time :  3079.7 secs   av.it.:   7.1
      thresh= 1.000E-02 alpha_mix =  0.700 |ddv_scf|^2 =  2.983E-06

      iter #   2 total cpu time :  3154.6 secs   av.it.:  13.0
      thresh= 1.727E-04 alpha_mix =  0.700 |ddv_scf|^2 =  1.797E-06

      iter #   3 total cpu time :  3229.6 secs   av.it.:  12.1
      thresh= 1.341E-04 alpha_mix =  0.700 |ddv_scf|^2 =  4.598E-08

      iter #   4 total cpu time :  3301.4 secs   av.it.:  12.8
      thresh= 2.144E-05 alpha_mix =  0.700 |ddv_scf|^2 =  1.739E-08

      iter #   5 total cpu time :  3370.4 secs   av.it.:  12.4
      thresh= 1.319E-05 alpha_mix =  0.700 |ddv_scf|^2 =  2.640E-11

      iter #   6 total cpu time :  3445.7 secs   av.it.:  13.5
      thresh= 5.138E-07 alpha_mix =  0.700 |ddv_scf|^2 =  4.062E-12

      iter #   7 total cpu time :  3521.5 secs   av.it.:  13.7
      thresh= 2.015E-07 alpha_mix =  0.700 |ddv_scf|^2 =  4.838E-12

      iter #   8 total cpu time :  3592.5 secs   av.it.:  12.6
      thresh= 2.200E-07 alpha_mix =  0.700 |ddv_scf|^2 =  6.531E-14

      iter #   9 total cpu time :  3668.5 secs   av.it.:  13.8
      thresh= 2.555E-08 alpha_mix =  0.700 |ddv_scf|^2 =  1.091E-14

      iter #  10 total cpu time :  3743.3 secs   av.it.:  13.5
      thresh= 1.044E-08 alpha_mix =  0.700 |ddv_scf|^2 =  6.511E-16

     End of self-consistent calculation

     Convergence has been achieved 


     Representation #  3 mode #   3

     Self-consistent Calculation

      iter #   1 total cpu time :  3795.4 secs   av.it.:   8.2
      thresh= 1.000E-02 alpha_mix =  0.700 |ddv_scf|^2 =  7.639E-06

      iter #   2 total cpu time :  3870.4 secs   av.it.:  13.4
      thresh= 2.764E-04 alpha_mix =  0.700 |ddv_scf|^2 =  7.452E-06

      iter #   3 total cpu time :  3941.8 secs   av.it.:  12.7
      thresh= 2.730E-04 alpha_mix =  0.700 |ddv_scf|^2 =  5.516E-07

      iter #   4 total cpu time :  4028.2 secs   av.it.:  12.6
      thresh= 7.427E-05 alpha_mix =  0.700 |ddv_scf|^2 =  7.549E-10

      iter #   5 total cpu time :  4103.4 secs   av.it.:  13.2
      thresh= 2.748E-06 alpha_mix =  0.700 |ddv_scf|^2 =  1.683E-11

      iter #   6 total cpu time :  4181.7 secs   av.it.:  13.2
      thresh= 4.102E-07 alpha_mix =  0.700 |ddv_scf|^2 =  5.477E-12

      iter #   7 total cpu time :  4255.7 secs   av.it.:  13.1
      thresh= 2.340E-07 alpha_mix =  0.700 |ddv_scf|^2 =  1.005E-13

      iter #   8 total cpu time :  4332.9 secs   av.it.:  13.7
      thresh= 3.171E-08 alpha_mix =  0.700 |ddv_scf|^2 =  3.321E-15

     End of self-consistent calculation

     Convergence has been achieved 


     Representation #  4 mode #   4

     Self-consistent Calculation

      iter #   1 total cpu time :  4381.5 secs   av.it.:   7.4
      thresh= 1.000E-02 alpha_mix =  0.700 |ddv_scf|^2 =  1.947E-06

      iter #   2 total cpu time :  4462.0 secs   av.it.:  13.6
      thresh= 1.395E-04 alpha_mix =  0.700 |ddv_scf|^2 =  1.085E-06

      iter #   3 total cpu time :  4535.2 secs   av.it.:  12.9
      thresh= 1.041E-04 alpha_mix =  0.700 |ddv_scf|^2 =  5.371E-08

      iter #   4 total cpu time :  4610.5 secs   av.it.:  13.2
      thresh= 2.318E-05 alpha_mix =  0.700 |ddv_scf|^2 =  1.228E-08

      iter #   5 total cpu time :  4682.7 secs   av.it.:  12.7
      thresh= 1.108E-05 alpha_mix =  0.700 |ddv_scf|^2 =  1.287E-10

      iter #   6 total cpu time :  4762.4 secs   av.it.:  13.8
      thresh= 1.135E-06 alpha_mix =  0.700 |ddv_scf|^2 =  8.970E-11

      iter #   7 total cpu time :  4843.0 secs   av.it.:  12.8
      thresh= 9.471E-07 alpha_mix =  0.700 |ddv_scf|^2 =  2.576E-12

      iter #   8 total cpu time :  4919.0 secs   av.it.:  13.8
      thresh= 1.605E-07 alpha_mix =  0.700 |ddv_scf|^2 =  3.398E-13

      iter #   9 total cpu time :  4999.7 secs   av.it.:  14.1
      thresh= 5.829E-08 alpha_mix =  0.700 |ddv_scf|^2 =  4.543E-14

      iter #  10 total cpu time :  5082.0 secs   av.it.:  13.5
      thresh= 2.131E-08 alpha_mix =  0.700 |ddv_scf|^2 =  2.294E-15

     End of self-consistent calculation

     Convergence has been achieved 


     Representation #  5 mode #   5

     Self-consistent Calculation

      iter #   1 total cpu time :  5136.0 secs   av.it.:   8.0
      thresh= 1.000E-02 alpha_mix =  0.700 |ddv_scf|^2 =  6.515E-06

      iter #   2 total cpu time :  5303.6 secs   av.it.:  13.3
      thresh= 2.552E-04 alpha_mix =  0.700 |ddv_scf|^2 =  5.593E-06

      iter #   3 total cpu time :  5376.4 secs   av.it.:  12.7
      thresh= 2.365E-04 alpha_mix =  0.700 |ddv_scf|^2 =  5.708E-07

      iter #   4 total cpu time :  5454.6 secs   av.it.:  12.5
      thresh= 7.555E-05 alpha_mix =  0.700 |ddv_scf|^2 =  7.606E-10

      iter #   5 total cpu time :  5545.6 secs   av.it.:  13.2
      thresh= 2.758E-06 alpha_mix =  0.700 |ddv_scf|^2 =  6.081E-11

      iter #   6 total cpu time :  5626.8 secs   av.it.:  12.9
      thresh= 7.798E-07 alpha_mix =  0.700 |ddv_scf|^2 =  2.361E-11

      iter #   7 total cpu time :  5707.9 secs   av.it.:  12.5
      thresh= 4.859E-07 alpha_mix =  0.700 |ddv_scf|^2 =  4.236E-13

      iter #   8 total cpu time :  5784.5 secs   av.it.:  12.8
      thresh= 6.509E-08 alpha_mix =  0.700 |ddv_scf|^2 =  5.983E-15

     End of self-consistent calculation

     Convergence has been achieved 


     Representation #  6 mode #   6

     Self-consistent Calculation

      iter #   1 total cpu time :  6173.6 secs   av.it.:   7.4
      thresh= 1.000E-02 alpha_mix =  0.700 |ddv_scf|^2 =  1.947E-06

      iter #   2 total cpu time :  6411.3 secs   av.it.:  13.6
      thresh= 1.395E-04 alpha_mix =  0.700 |ddv_scf|^2 =  1.085E-06

      iter #   3 total cpu time :  6503.7 secs   av.it.:  12.9
      thresh= 1.041E-04 alpha_mix =  0.700 |ddv_scf|^2 =  5.372E-08

      iter #   4 total cpu time :  6589.6 secs   av.it.:  13.2
      thresh= 2.318E-05 alpha_mix =  0.700 |ddv_scf|^2 =  1.228E-08

      iter #   5 total cpu time :  6671.0 secs   av.it.:  12.7
      thresh= 1.108E-05 alpha_mix =  0.700 |ddv_scf|^2 =  1.287E-10

      iter #   6 total cpu time :  6755.4 secs   av.it.:  13.8
      thresh= 1.135E-06 alpha_mix =  0.700 |ddv_scf|^2 =  8.969E-11

      iter #   7 total cpu time :  6839.3 secs   av.it.:  12.8
      thresh= 9.471E-07 alpha_mix =  0.700 |ddv_scf|^2 =  2.576E-12

      iter #   8 total cpu time :  6926.0 secs   av.it.:  13.8
      thresh= 1.605E-07 alpha_mix =  0.700 |ddv_scf|^2 =  3.398E-13

      iter #   9 total cpu time :  7030.4 secs   av.it.:  14.1
      thresh= 5.829E-08 alpha_mix =  0.700 |ddv_scf|^2 =  4.543E-14

      iter #  10 total cpu time :  7117.0 secs   av.it.:  13.5
      thresh= 2.131E-08 alpha_mix =  0.700 |ddv_scf|^2 =  2.294E-15

     End of self-consistent calculation

     Convergence has been achieved 


     Representation #  7 mode #   7

     Self-consistent Calculation

      iter #   1 total cpu time :  7168.4 secs   av.it.:   6.4
      thresh= 1.000E-02 alpha_mix =  0.700 |ddv_scf|^2 =  4.460E-07

      iter #   2 total cpu time :  7249.9 secs   av.it.:  12.8
      thresh= 6.678E-05 alpha_mix =  0.700 |ddv_scf|^2 =  5.509E-09

      iter #   3 total cpu time :  7342.8 secs   av.it.:  12.8
      thresh= 7.422E-06 alpha_mix =  0.700 |ddv_scf|^2 =  6.322E-11

      iter #   4 total cpu time :  7425.7 secs   av.it.:  12.8
      thresh= 7.951E-07 alpha_mix =  0.700 |ddv_scf|^2 =  5.363E-13

      iter #   5 total cpu time :  7516.1 secs   av.it.:  12.9
      thresh= 7.323E-08 alpha_mix =  0.700 |ddv_scf|^2 =  3.027E-15

     End of self-consistent calculation

     Convergence has been achieved 


     Representation #  8 mode #   8

     Self-consistent Calculation

      iter #   1 total cpu time :  7572.8 secs   av.it.:   6.9
      thresh= 1.000E-02 alpha_mix =  0.700 |ddv_scf|^2 =  1.552E-06

      iter #   2 total cpu time :  7656.9 secs   av.it.:  13.2
      thresh= 1.246E-04 alpha_mix =  0.700 |ddv_scf|^2 =  1.974E-07

      iter #   3 total cpu time :  7746.8 secs   av.it.:  13.2
      thresh= 4.443E-05 alpha_mix =  0.700 |ddv_scf|^2 =  1.516E-08

      iter #   4 total cpu time :  7836.9 secs   av.it.:  12.7
      thresh= 1.231E-05 alpha_mix =  0.700 |ddv_scf|^2 =  1.829E-09

      iter #   5 total cpu time :  7917.2 secs   av.it.:  12.8
      thresh= 4.277E-06 alpha_mix =  0.700 |ddv_scf|^2 =  3.217E-11

      iter #   6 total cpu time :  8012.4 secs   av.it.:  13.8
      thresh= 5.672E-07 alpha_mix =  0.700 |ddv_scf|^2 =  2.841E-12

      iter #   7 total cpu time :  8104.1 secs   av.it.:  13.6
      thresh= 1.685E-07 alpha_mix =  0.700 |ddv_scf|^2 =  6.405E-14

      iter #   8 total cpu time :  8191.9 secs   av.it.:  13.4
      thresh= 2.531E-08 alpha_mix =  0.700 |ddv_scf|^2 =  2.411E-15

     End of self-consistent calculation

     Convergence has been achieved 


     Representation #  9 mode #   9

     Self-consistent Calculation

      iter #   1 total cpu time :  8253.8 secs   av.it.:   8.2
      thresh= 1.000E-02 alpha_mix =  0.700 |ddv_scf|^2 =  7.639E-06

      iter #   2 total cpu time :  8347.8 secs   av.it.:  13.4
      thresh= 2.764E-04 alpha_mix =  0.700 |ddv_scf|^2 =  7.452E-06

      iter #   3 total cpu time :  8446.4 secs   av.it.:  12.7
      thresh= 2.730E-04 alpha_mix =  0.700 |ddv_scf|^2 =  5.516E-07

      iter #   4 total cpu time :  8565.1 secs   av.it.:  12.5
      thresh= 7.427E-05 alpha_mix =  0.700 |ddv_scf|^2 =  7.549E-10

      iter #   5 total cpu time :  8699.6 secs   av.it.:  13.2
      thresh= 2.748E-06 alpha_mix =  0.700 |ddv_scf|^2 =  1.683E-11

      iter #   6 total cpu time :  8809.1 secs   av.it.:  13.2
      thresh= 4.102E-07 alpha_mix =  0.700 |ddv_scf|^2 =  5.477E-12

      iter #   7 total cpu time :  8916.5 secs   av.it.:  13.1
      thresh= 2.340E-07 alpha_mix =  0.700 |ddv_scf|^2 =  1.004E-13

      iter #   8 total cpu time :  9030.9 secs   av.it.:  13.4
      thresh= 3.169E-08 alpha_mix =  0.700 |ddv_scf|^2 =  2.840E-15

     End of self-consistent calculation

     Convergence has been achieved 


     Representation # 10 mode #  10

     Self-consistent Calculation

      iter #   1 total cpu time :  9091.3 secs   av.it.:   6.9
      thresh= 1.000E-02 alpha_mix =  0.700 |ddv_scf|^2 =  1.238E-06

      iter #   2 total cpu time :  9206.0 secs   av.it.:  13.5
      thresh= 1.113E-04 alpha_mix =  0.700 |ddv_scf|^2 =  2.030E-07

      iter #   3 total cpu time :  9321.2 secs   av.it.:  13.5
      thresh= 4.506E-05 alpha_mix =  0.700 |ddv_scf|^2 =  5.045E-08

      iter #   4 total cpu time :  9435.3 secs   av.it.:  12.5
      thresh= 2.246E-05 alpha_mix =  0.700 |ddv_scf|^2 =  1.890E-09

      iter #   5 total cpu time :  9625.0 secs   av.it.:  13.3
      thresh= 4.348E-06 alpha_mix =  0.700 |ddv_scf|^2 =  4.748E-11

      iter #   6 total cpu time : 10262.2 secs   av.it.:  13.8
      thresh= 6.891E-07 alpha_mix =  0.700 |ddv_scf|^2 =  3.231E-12

      iter #   7 total cpu time : 10461.5 secs   av.it.:  13.3
      thresh= 1.797E-07 alpha_mix =  0.700 |ddv_scf|^2 =  1.281E-13

      iter #   8 total cpu time : 10576.1 secs   av.it.:  13.4
      thresh= 3.580E-08 alpha_mix =  0.700 |ddv_scf|^2 =  2.040E-15

     End of self-consistent calculation

     Convergence has been achieved 


     Representation # 11 mode #  11

     Self-consistent Calculation

      iter #   1 total cpu time : 10659.8 secs   av.it.:   7.2
      thresh= 1.000E-02 alpha_mix =  0.700 |ddv_scf|^2 =  9.615E-07

      iter #   2 total cpu time : 10776.6 secs   av.it.:  13.8
      thresh= 9.806E-05 alpha_mix =  0.700 |ddv_scf|^2 =  3.570E-07

      iter #   3 total cpu time : 10881.4 secs   av.it.:  13.3
      thresh= 5.975E-05 alpha_mix =  0.700 |ddv_scf|^2 =  8.620E-08

      iter #   4 total cpu time : 10993.3 secs   av.it.:  12.3
      thresh= 2.936E-05 alpha_mix =  0.700 |ddv_scf|^2 =  2.187E-09

      iter #   5 total cpu time : 11101.6 secs   av.it.:  13.3
      thresh= 4.676E-06 alpha_mix =  0.700 |ddv_scf|^2 =  1.991E-11

      iter #   6 total cpu time : 11225.7 secs   av.it.:  14.0
      thresh= 4.462E-07 alpha_mix =  0.700 |ddv_scf|^2 =  2.915E-12

      iter #   7 total cpu time : 11339.1 secs   av.it.:  13.6
      thresh= 1.707E-07 alpha_mix =  0.700 |ddv_scf|^2 =  1.958E-13

      iter #   8 total cpu time : 11451.6 secs   av.it.:  13.4
      thresh= 4.425E-08 alpha_mix =  0.700 |ddv_scf|^2 =  4.345E-15

     End of self-consistent calculation

     Convergence has been achieved 


     Representation # 12 mode #  12

     Self-consistent Calculation

      iter #   1 total cpu time : 11530.6 secs   av.it.:   6.9
      thresh= 1.000E-02 alpha_mix =  0.700 |ddv_scf|^2 =  1.238E-06

      iter #   2 total cpu time : 11633.2 secs   av.it.:  13.5
      thresh= 1.113E-04 alpha_mix =  0.700 |ddv_scf|^2 =  2.030E-07

      iter #   3 total cpu time : 11738.3 secs   av.it.:  13.5
      thresh= 4.506E-05 alpha_mix =  0.700 |ddv_scf|^2 =  5.044E-08

      iter #   4 total cpu time : 11939.6 secs   av.it.:  12.5
      thresh= 2.246E-05 alpha_mix =  0.700 |ddv_scf|^2 =  1.890E-09

      iter #   5 total cpu time : 12046.9 secs   av.it.:  13.3
      thresh= 4.348E-06 alpha_mix =  0.700 |ddv_scf|^2 =  4.749E-11

      iter #   6 total cpu time : 12169.0 secs   av.it.:  13.8
      thresh= 6.891E-07 alpha_mix =  0.700 |ddv_scf|^2 =  3.231E-12

      iter #   7 total cpu time : 12298.8 secs   av.it.:  13.3
      thresh= 1.797E-07 alpha_mix =  0.700 |ddv_scf|^2 =  1.281E-13

      iter #   8 total cpu time : 12418.6 secs   av.it.:  13.4
      thresh= 3.580E-08 alpha_mix =  0.700 |ddv_scf|^2 =  2.040E-15

     End of self-consistent calculation

     Convergence has been achieved 


     Representation # 13 mode #  13

     Self-consistent Calculation

      iter #   1 total cpu time : 12497.9 secs   av.it.:   8.0
      thresh= 1.000E-02 alpha_mix =  0.700 |ddv_scf|^2 =  6.515E-06

      iter #   2 total cpu time : 12616.4 secs   av.it.:  13.3
      thresh= 2.552E-04 alpha_mix =  0.700 |ddv_scf|^2 =  5.593E-06

      iter #   3 total cpu time : 12734.3 secs   av.it.:  12.7
      thresh= 2.365E-04 alpha_mix =  0.700 |ddv_scf|^2 =  5.708E-07

      iter #   4 total cpu time : 12856.3 secs   av.it.:  12.5
      thresh= 7.555E-05 alpha_mix =  0.700 |ddv_scf|^2 =  7.606E-10

      iter #   5 total cpu time : 12978.0 secs   av.it.:  13.2
      thresh= 2.758E-06 alpha_mix =  0.700 |ddv_scf|^2 =  6.081E-11

      iter #   6 total cpu time : 13084.7 secs   av.it.:  12.9
      thresh= 7.798E-07 alpha_mix =  0.700 |ddv_scf|^2 =  2.361E-11

      iter #   7 total cpu time : 13194.7 secs   av.it.:  12.5
      thresh= 4.859E-07 alpha_mix =  0.700 |ddv_scf|^2 =  4.236E-13

      iter #   8 total cpu time : 13297.0 secs   av.it.:  12.7
      thresh= 6.509E-08 alpha_mix =  0.700 |ddv_scf|^2 =  5.874E-15

     End of self-consistent calculation

     Convergence has been achieved 


     Representation # 14 mode #  14

     Self-consistent Calculation

      iter #   1 total cpu time : 13368.4 secs   av.it.:   7.6
      thresh= 1.000E-02 alpha_mix =  0.700 |ddv_scf|^2 =  2.241E-06

      iter #   2 total cpu time : 13463.6 secs   av.it.:  13.3
      thresh= 1.497E-04 alpha_mix =  0.700 |ddv_scf|^2 =  4.214E-07

      iter #   3 total cpu time : 13561.2 secs   av.it.:  12.9
      thresh= 6.492E-05 alpha_mix =  0.700 |ddv_scf|^2 =  1.287E-09

      iter #   4 total cpu time : 13654.1 secs   av.it.:  13.1
      thresh= 3.588E-06 alpha_mix =  0.700 |ddv_scf|^2 =  9.738E-11

      iter #   5 total cpu time : 13750.5 secs   av.it.:  13.1
      thresh= 9.868E-07 alpha_mix =  0.700 |ddv_scf|^2 =  2.015E-12

      iter #   6 total cpu time : 13835.6 secs   av.it.:  12.9
      thresh= 1.419E-07 alpha_mix =  0.700 |ddv_scf|^2 =  3.837E-14

      iter #   7 total cpu time : 14229.6 secs   av.it.:  13.1
      thresh= 1.959E-08 alpha_mix =  0.700 |ddv_scf|^2 =  1.472E-15

     End of self-consistent calculation

     Convergence has been achieved 


     Representation # 15 mode #  15

     Self-consistent Calculation

      iter #   1 total cpu time : 14602.7 secs   av.it.:   6.9
      thresh= 1.000E-02 alpha_mix =  0.700 |ddv_scf|^2 =  6.468E-07

      iter #   2 total cpu time : 14802.2 secs   av.it.:  13.3
      thresh= 8.042E-05 alpha_mix =  0.700 |ddv_scf|^2 =  5.624E-08

      iter #   3 total cpu time : 14912.7 secs   av.it.:  13.4
      thresh= 2.371E-05 alpha_mix =  0.700 |ddv_scf|^2 =  1.404E-09

      iter #   4 total cpu time : 15003.6 secs   av.it.:  13.0
      thresh= 3.747E-06 alpha_mix =  0.700 |ddv_scf|^2 =  1.586E-11

      iter #   5 total cpu time : 15151.5 secs   av.it.:  13.2
      thresh= 3.983E-07 alpha_mix =  0.700 |ddv_scf|^2 =  8.897E-13

      iter #   6 total cpu time : 15247.0 secs   av.it.:  13.0
      thresh= 9.433E-08 alpha_mix =  0.700 |ddv_scf|^2 =  2.804E-14

      iter #   7 total cpu time : 15369.8 secs   av.it.:  12.7
      thresh= 1.675E-08 alpha_mix =  0.700 |ddv_scf|^2 =  2.265E-15

     End of self-consistent calculation

     Convergence has been achieved 


     Representation # 16 mode #  16

     Self-consistent Calculation

      iter #   1 total cpu time : 15455.4 secs   av.it.:   6.9
      thresh= 1.000E-02 alpha_mix =  0.700 |ddv_scf|^2 =  5.464E-07

      iter #   2 total cpu time : 15577.2 secs   av.it.:  13.7
      thresh= 7.392E-05 alpha_mix =  0.700 |ddv_scf|^2 =  3.089E-08

      iter #   3 total cpu time : 15735.5 secs   av.it.:  13.7
      thresh= 1.757E-05 alpha_mix =  0.700 |ddv_scf|^2 =  1.332E-09

      iter #   4 total cpu time : 15853.2 secs   av.it.:  13.4
      thresh= 3.649E-06 alpha_mix =  0.700 |ddv_scf|^2 =  1.575E-11

      iter #   5 total cpu time : 15960.8 secs   av.it.:  13.5
      thresh= 3.968E-07 alpha_mix =  0.700 |ddv_scf|^2 =  5.220E-13

      iter #   6 total cpu time : 16106.5 secs   av.it.:  13.4
      thresh= 7.225E-08 alpha_mix =  0.700 |ddv_scf|^2 =  2.837E-14

      iter #   7 total cpu time : 16226.8 secs   av.it.:  13.4
      thresh= 1.684E-08 alpha_mix =  0.700 |ddv_scf|^2 =  2.116E-15

     End of self-consistent calculation

     Convergence has been achieved 


     Representation # 17 mode #  17

     Self-consistent Calculation

      iter #   1 total cpu time : 16323.6 secs   av.it.:   7.6
      thresh= 1.000E-02 alpha_mix =  0.700 |ddv_scf|^2 =  2.241E-06

      iter #   2 total cpu time : 16466.7 secs   av.it.:  13.3
      thresh= 1.497E-04 alpha_mix =  0.700 |ddv_scf|^2 =  4.214E-07

      iter #   3 total cpu time : 16570.6 secs   av.it.:  12.9
      thresh= 6.492E-05 alpha_mix =  0.700 |ddv_scf|^2 =  1.287E-09

      iter #   4 total cpu time : 16671.0 secs   av.it.:  13.2
      thresh= 3.588E-06 alpha_mix =  0.700 |ddv_scf|^2 =  9.738E-11

      iter #   5 total cpu time : 16772.1 secs   av.it.:  13.1
      thresh= 9.868E-07 alpha_mix =  0.700 |ddv_scf|^2 =  2.015E-12

      iter #   6 total cpu time : 16860.6 secs   av.it.:  12.9
      thresh= 1.419E-07 alpha_mix =  0.700 |ddv_scf|^2 =  3.837E-14

      iter #   7 total cpu time : 16953.9 secs   av.it.:  13.1
      thresh= 1.959E-08 alpha_mix =  0.700 |ddv_scf|^2 =  1.472E-15

     End of self-consistent calculation

     Convergence has been achieved 


     Representation # 18 mode #  18

     Self-consistent Calculation

      iter #   1 total cpu time : 17274.4 secs   av.it.:   6.9
      thresh= 1.000E-02 alpha_mix =  0.700 |ddv_scf|^2 =  5.464E-07

      iter #   2 total cpu time : 17386.2 secs   av.it.:  13.7
      thresh= 7.392E-05 alpha_mix =  0.700 |ddv_scf|^2 =  3.088E-08

      iter #   3 total cpu time : 17497.0 secs   av.it.:  13.7
      thresh= 1.757E-05 alpha_mix =  0.700 |ddv_scf|^2 =  1.332E-09

      iter #   4 total cpu time : 17612.7 secs   av.it.:  13.4
      thresh= 3.649E-06 alpha_mix =  0.700 |ddv_scf|^2 =  1.575E-11

      iter #   5 total cpu time : 17721.5 secs   av.it.:  13.5
      thresh= 3.968E-07 alpha_mix =  0.700 |ddv_scf|^2 =  5.220E-13

      iter #   6 total cpu time : 17832.7 secs   av.it.:  13.4
      thresh= 7.225E-08 alpha_mix =  0.700 |ddv_scf|^2 =  2.837E-14

      iter #   7 total cpu time : 17939.2 secs   av.it.:  13.4
      thresh= 1.684E-08 alpha_mix =  0.700 |ddv_scf|^2 =  2.116E-15

     End of self-consistent calculation

     Convergence has been achieved 
 
     Number of q in the star =    1
     List of q in the star:
          1   0.000000000   0.000000000   0.000000000

          Dielectric constant in cartesian axis 

          (       5.009163093       0.000000005       0.000000000 )
          (       0.000000005       5.009163093       0.000000000 )
          (       0.000000000       0.000000000       5.150111112 )

          Effective charges (d Force / dE) in cartesian axis

           atom      1   Sn 
      Ex  (        4.18113        0.56398        0.00000 )
      Ey  (        0.56398        4.18113        0.00000 )
      Ez  (        0.00000        0.00000        4.59422 )
           atom      2   Sn 
      Ex  (        4.18113       -0.56398        0.00000 )
      Ey  (       -0.56398        4.18113        0.00000 )
      Ez  (        0.00000        0.00000        4.59422 )
           atom      3   O  
      Ex  (       -2.09281        0.80753        0.00000 )
      Ey  (        0.80752       -2.09277        0.00000 )
      Ez  (        0.00000        0.00000       -2.30415 )
           atom      4   O  
      Ex  (       -2.09277        0.80752        0.00000 )
      Ey  (        0.80753       -2.09281        0.00000 )
      Ez  (        0.00000        0.00000       -2.30415 )
           atom      5   O  
      Ex  (       -2.09279       -0.80752        0.00000 )
      Ey  (       -0.80752       -2.09279        0.00000 )
      Ez  (        0.00000        0.00000       -2.30415 )
           atom      6   O  
      Ex  (       -2.09280       -0.80753        0.00000 )
      Ey  (       -0.80753       -2.09280        0.00000 )
      Ez  (        0.00000        0.00000       -2.30415 )

          Effective charges (d P / du) in cartesian axis 

           atom      1   Sn 
      Px  (        4.18090        0.56455        0.00000 )
      Py  (        0.56455        4.18090        0.00000 )
      Pz  (        0.00000        0.00000        4.59438 )
           atom      2   Sn 
      Px  (        4.18090       -0.56455        0.00000 )
      Py  (       -0.56455        4.18090        0.00000 )
      Pz  (        0.00000        0.00000        4.59438 )
           atom      3   O  
      Px  (       -2.09266        0.80748        0.00000 )
      Py  (        0.80749       -2.09271        0.00000 )
      Pz  (        0.00000        0.00000       -2.30384 )
           atom      4   O  
      Px  (       -2.09271        0.80749        0.00000 )
      Py  (        0.80748       -2.09266        0.00000 )
      Pz  (        0.00000        0.00000       -2.30384 )
           atom      5   O  
      Px  (       -2.09270       -0.80767        0.00000 )
      Py  (       -0.80767       -2.09270        0.00000 )
      Pz  (        0.00000        0.00000       -2.30384 )
           atom      6   O  
      Px  (       -2.09268       -0.80765        0.00000 )
      Py  (       -0.80765       -2.09268        0.00000 )
      Pz  (        0.00000        0.00000       -2.30385 )

     Diagonalizing the dynamical matrix

     q = (    0.000000000   0.000000000   0.000000000 ) 

 **************************************************************************
     freq (    1) =      -0.577042 [THz] =     -19.248052 [cm-1]
     freq (    2) =      -0.539115 [THz] =     -17.982951 [cm-1]
     freq (    3) =       0.727019 [THz] =      24.250731 [cm-1]
     freq (    4) =       2.952527 [THz] =      98.485690 [cm-1]
     freq (    5) =       4.238498 [THz] =     141.381082 [cm-1]
     freq (    6) =       6.392151 [THz] =     213.219195 [cm-1]
     freq (    7) =       6.416397 [THz] =     214.027970 [cm-1]
     freq (    8) =       7.786205 [THz] =     259.719853 [cm-1]
     freq (    9) =       7.797474 [THz] =     260.095724 [cm-1]
     freq (   10) =      10.041513 [THz] =     334.948804 [cm-1]
     freq (   11) =      13.091226 [THz] =     436.676301 [cm-1]
     freq (   12) =      13.288874 [THz] =     443.269130 [cm-1]
     freq (   13) =      13.301285 [THz] =     443.683097 [cm-1]
     freq (   14) =      15.970457 [THz] =     532.717119 [cm-1]
     freq (   15) =      16.445888 [THz] =     548.575777 [cm-1]
     freq (   16) =      16.449330 [THz] =     548.690577 [cm-1]
     freq (   17) =      17.499662 [THz] =     583.725903 [cm-1]
     freq (   18) =      21.133554 [THz] =     704.939466 [cm-1]
 **************************************************************************

     Mode symmetry, C_2v (mm2)  point group:

     freq (  1 -  1) =        -19.2  [cm-1]   --> B_1  D_3  S_3   I+R
     freq (  2 -  2) =        -18.0  [cm-1]   --> A_1  D_1  S_1   I+R
     freq (  3 -  3) =         24.3  [cm-1]   --> B_2  D_4  S_4   I+R
     freq (  4 -  4) =         98.5  [cm-1]   --> B_1  D_3  S_3   I+R
     freq (  5 -  5) =        141.4  [cm-1]   --> B_2  D_4  S_4   I+R
     freq (  6 -  6) =        213.2  [cm-1]   --> A_1  D_1  S_1   I+R
     freq (  7 -  7) =        214.0  [cm-1]   --> B_1  D_3  S_3   I+R
     freq (  8 -  8) =        259.7  [cm-1]   --> A_1  D_1  S_1   I+R
     freq (  9 -  9) =        260.1  [cm-1]   --> B_1  D_3  S_3   I+R
     freq ( 10 - 10) =        334.9  [cm-1]   --> B_1  D_3  S_3   I+R
     freq ( 11 - 11) =        436.7  [cm-1]   --> B_2  D_4  S_4   I+R
     freq ( 12 - 12) =        443.3  [cm-1]   --> A_2  D_2  S_2   R  
     freq ( 13 - 13) =        443.7  [cm-1]   --> B_2  D_4  S_4   I+R
     freq ( 14 - 14) =        532.7  [cm-1]   --> B_2  D_4  S_4   I+R
     freq ( 15 - 15) =        548.6  [cm-1]   --> A_1  D_1  S_1   I+R
     freq ( 16 - 16) =        548.7  [cm-1]   --> B_1  D_3  S_3   I+R
     freq ( 17 - 17) =        583.7  [cm-1]   --> A_1  D_1  S_1   I+R
     freq ( 18 - 18) =        704.9  [cm-1]   --> A_1  D_1  S_1   I+R

     Calculation of q =    0.0000000   0.0000000   0.4963289
 
     Parallelization info
     --------------------
     sticks:   dense  smooth     PW     G-vecs:    dense   smooth      PW
     Min          62      62     18                 1404     1404     230
     Max          63      63     19                 1405     1405     235
     Sum        2001    2001    593                44945    44945    7427
 

     Title: 
     Phonon dispersions for SnO2                                                


     bravais-lattice index     =            6
     lattice parameter (alat)  =       9.1370  a.u.
     unit-cell volume          =     512.3005 (a.u.)^3
     number of atoms/cell      =            6
     number of atomic types    =            2
     number of electrons       =        52.00
     number of Kohn-Sham states=           26
     kinetic-energy cutoff     =      75.0000  Ry
     charge density cutoff     =     300.0000  Ry
     Exchange-correlation      = PBE ( 1  4  3  4 0 0)

     celldm(1)=   9.137033  celldm(2)=   1.000000  celldm(3)=   0.671598
     celldm(4)=   0.000000  celldm(5)=   0.000000  celldm(6)=   0.000000

     crystal axes: (cart. coord. in units of alat)
               a(1) = (   1.000000   0.000000   0.000000 )  
               a(2) = (   0.000000   1.000000   0.000000 )  
               a(3) = (   0.000000   0.000000   0.671598 )  

     reciprocal axes: (cart. coord. in units 2 pi/alat)
               b(1) = (  1.000000  0.000000  0.000000 )  
               b(2) = (  0.000000  1.000000  0.000000 )  
               b(3) = (  0.000000  0.000000  1.488987 )  


     PseudoPot. # 1 for Sn read from file:
     ../../Pseudo_potentials/Sn_PBE.upf
     MD5 check sum: 78e6386ae56e929f0568ae8bf606a80c
     Pseudo is Norm-conserving + core correction, Zval = 14.0
     Generated using ONCVPSP code by D. R. Hamann
     Using radial grid of 1628 points,  6 beta functions with: 
                l(1) =   0
                l(2) =   0
                l(3) =   1
                l(4) =   1
                l(5) =   2
                l(6) =   2

     PseudoPot. # 2 for O  read from file:
     ../../Pseudo_potentials/O_PBE.upf
     MD5 check sum: 3e3f909f7470e8921608ab6b1f57bbae
     Pseudo is Norm-conserving + core correction, Zval =  6.0
     Generated using ONCVPSP code by D. R. Hamann
     Using radial grid of  936 points,  5 beta functions with: 
                l(1) =   0
                l(2) =   0
                l(3) =   1
                l(4) =   1
                l(5) =   2

     atomic species   valence    mass     pseudopotential
        Sn            14.00   118.71000     Sn( 1.00)
        O              6.00    15.99900     O ( 1.00)

      4 Sym. Ops. (no inversion) found



   Cartesian axes

     site n.     atom                  positions (alat units)
         1           Sn  tau(   1) = (  -0.0003320  -0.0003320   0.0000000  )
         2           Sn  tau(   2) = (   0.4996675   0.4996675   0.3357989  )
         3           O   tau(   3) = (   0.8063692   0.1929618   0.3357989  )
         4           O   tau(   4) = (   0.1929618   0.8063692   0.3357989  )
         5           O   tau(   5) = (   0.3063705   0.3063705   0.0000000  )
         6           O   tau(   6) = (   0.6929630   0.6929630   0.0000000  )

     number of k points=   252

     Number of k-points >= 100: set verbosity='high' to print them.

     Dense  grid:    44945 G-vectors     FFT dimensions: (  54,  54,  36)

     Estimated max dynamical RAM per process >       5.68 MB

     Estimated total dynamical RAM >     181.61 MB

     Check: negative/imaginary core charge=   -0.000002    0.000000

     The potential is recalculated from file :
     ./_ph0/epw.save/charge-density.dat

     Starting wfc are   34 atomic wfcs

     Band Structure Calculation
     Davidson diagonalization with overlap

     ethr =  1.92E-11,  avg # of iterations = 12.2

     total cpu time spent up to now is      303.9 secs

     End of band structure calculation

     Number of k-points >= 100: set verbosity='high' to print the bands.

     highest occupied level (ev):     8.9027

     Writing output data file epw.save

     Phonon dispersions for SnO2                                                

     bravais-lattice index     =            6
     lattice parameter (alat)  =       9.1370  a.u.
     unit-cell volume          =     512.3005 (a.u.)^3
     number of atoms/cell      =            6
     number of atomic types    =            2
     kinetic-energy cut-off    =      75.0000  Ry
     charge density cut-off    =     300.0000  Ry
     convergence threshold     =      1.0E-14
     beta                      =       0.7000
     number of iterations used =            4
     Exchange-correlation      = PBE ( 1  4  3  4 0 0)


     celldm(1)=    9.13703  celldm(2)=    1.00000  celldm(3)=    0.67160
     celldm(4)=    0.00000  celldm(5)=    0.00000  celldm(6)=    0.00000

     crystal axes: (cart. coord. in units of alat)
               a(1) = (  1.0000  0.0000  0.0000 )  
               a(2) = (  0.0000  1.0000  0.0000 )  
               a(3) = (  0.0000  0.0000  0.6716 )  

     reciprocal axes: (cart. coord. in units 2 pi/alat)
               b(1) = (  1.0000  0.0000  0.0000 )  
               b(2) = (  0.0000  1.0000  0.0000 )  
               b(3) = (  0.0000  0.0000  1.4890 )  


     Atoms inside the unit cell: 

     Cartesian axes

     site n.  atom      mass           positions (alat units)
        1     Sn 118.7100   tau(    1) = (   -0.00033   -0.00033    0.00000  )
        2     Sn 118.7100   tau(    2) = (    0.49967    0.49967    0.33580  )
        3     O   15.9990   tau(    3) = (    0.80637    0.19296    0.33580  )
        4     O   15.9990   tau(    4) = (    0.19296    0.80637    0.33580  )
        5     O   15.9990   tau(    5) = (    0.30637    0.30637    0.00000  )
        6     O   15.9990   tau(    6) = (    0.69296    0.69296    0.00000  )

     Computing dynamical matrix for 
                    q = (   0.0000000   0.0000000   0.4963289 )
 
      2 Sym.Ops. (no q -> -q+G )


     G cutoff =  634.4127  (   1405 G-vectors)     FFT grid: ( 54, 54, 36)
     number of k points=   252

     PseudoPot. # 1 for Sn read from file:
     ../../Pseudo_potentials/Sn_PBE.upf
     MD5 check sum: 78e6386ae56e929f0568ae8bf606a80c
     Pseudo is Norm-conserving + core correction, Zval = 14.0
     Generated using ONCVPSP code by D. R. Hamann
     Using radial grid of 1628 points,  6 beta functions with: 
                l(1) =   0
                l(2) =   0
                l(3) =   1
                l(4) =   1
                l(5) =   2
                l(6) =   2

     PseudoPot. # 2 for O  read from file:
     ../../Pseudo_potentials/O_PBE.upf
     MD5 check sum: 3e3f909f7470e8921608ab6b1f57bbae
     Pseudo is Norm-conserving + core correction, Zval =  6.0
     Generated using ONCVPSP code by D. R. Hamann
     Using radial grid of  936 points,  5 beta functions with: 
                l(1) =   0
                l(2) =   0
                l(3) =   1
                l(4) =   1
                l(5) =   2

     Mode symmetry, C_s (m)     point group:


     Atomic displacements:
     There are  18 irreducible representations

     Representation     1      1 modes -A'  To be done

     Representation     2      1 modes -A'  To be done

     Representation     3      1 modes -A'  To be done

     Representation     4      1 modes -A'  To be done

     Representation     5      1 modes -A'  To be done

     Representation     6      1 modes -A'  To be done

     Representation     7      1 modes -A'  To be done

     Representation     8      1 modes -A'  To be done

     Representation     9      1 modes -A'  To be done

     Representation    10      1 modes -A'  To be done

     Representation    11      1 modes -A'  To be done

     Representation    12      1 modes -A''  To be done

     Representation    13      1 modes -A''  To be done

     Representation    14      1 modes -A''  To be done

     Representation    15      1 modes -A''  To be done

     Representation    16      1 modes -A''  To be done

     Representation    17      1 modes -A''  To be done

     Representation    18      1 modes -A''  To be done



     Alpha used in Ewald sum =   2.7000
     PHONON       :     2h40m CPU        5h 4m WALL



     Representation #  1 mode #   1

     Self-consistent Calculation

      iter #   1 total cpu time : 18377.2 secs   av.it.:   7.8
      thresh= 1.000E-02 alpha_mix =  0.700 |ddv_scf|^2 =  1.591E-05

      iter #   2 total cpu time : 18625.2 secs   av.it.:  13.1
      thresh= 3.988E-04 alpha_mix =  0.700 |ddv_scf|^2 =  4.966E-05

      iter #   3 total cpu time : 18800.9 secs   av.it.:  11.4
      thresh= 7.047E-04 alpha_mix =  0.700 |ddv_scf|^2 =  3.476E-07

      iter #   4 total cpu time : 18995.3 secs   av.it.:  13.1
      thresh= 5.896E-05 alpha_mix =  0.700 |ddv_scf|^2 =  4.047E-08

      iter #   5 total cpu time : 19185.5 secs   av.it.:  12.8
      thresh= 2.012E-05 alpha_mix =  0.700 |ddv_scf|^2 =  1.044E-09

      iter #   6 total cpu time : 19382.3 secs   av.it.:  13.4
      thresh= 3.231E-06 alpha_mix =  0.700 |ddv_scf|^2 =  2.090E-10

      iter #   7 total cpu time : 19586.1 secs   av.it.:  13.5
      thresh= 1.446E-06 alpha_mix =  0.700 |ddv_scf|^2 =  3.304E-11

      iter #   8 total cpu time : 19827.9 secs   av.it.:  13.0
      thresh= 5.748E-07 alpha_mix =  0.700 |ddv_scf|^2 =  2.165E-13

      iter #   9 total cpu time : 20116.7 secs   av.it.:  14.6
      thresh= 4.653E-08 alpha_mix =  0.700 |ddv_scf|^2 =  5.101E-14

      iter #  10 total cpu time : 20391.0 secs   av.it.:  14.4
      thresh= 2.259E-08 alpha_mix =  0.700 |ddv_scf|^2 =  3.559E-14

      iter #  11 total cpu time : 20656.1 secs   av.it.:  13.5
      thresh= 1.887E-08 alpha_mix =  0.700 |ddv_scf|^2 =  2.114E-14

      iter #  12 total cpu time : 20909.4 secs   av.it.:  12.9
      thresh= 1.454E-08 alpha_mix =  0.700 |ddv_scf|^2 =  4.727E-15

     End of self-consistent calculation

     Convergence has been achieved 


     Representation #  2 mode #   2

     Self-consistent Calculation

      iter #   1 total cpu time : 21082.9 secs   av.it.:   8.8
      thresh= 1.000E-02 alpha_mix =  0.700 |ddv_scf|^2 =  4.640E-05

      iter #   2 total cpu time : 21508.3 secs   av.it.:  13.5
      thresh= 6.812E-04 alpha_mix =  0.700 |ddv_scf|^2 =  1.623E-04

      iter #   3 total cpu time : 21917.8 secs   av.it.:  11.8
      thresh= 1.274E-03 alpha_mix =  0.700 |ddv_scf|^2 =  9.001E-07

      iter #   4 total cpu time : 22352.0 secs   av.it.:  13.3
      thresh= 9.488E-05 alpha_mix =  0.700 |ddv_scf|^2 =  2.318E-08

      iter #   5 total cpu time : 22737.0 secs   av.it.:  13.4
      thresh= 1.523E-05 alpha_mix =  0.700 |ddv_scf|^2 =  6.878E-09

      iter #   6 total cpu time : 23222.6 secs   av.it.:  13.0
      thresh= 8.294E-06 alpha_mix =  0.700 |ddv_scf|^2 =  1.235E-09

      iter #   7 total cpu time : 23705.3 secs   av.it.:  13.0
      thresh= 3.514E-06 alpha_mix =  0.700 |ddv_scf|^2 =  4.260E-11

      iter #   8 total cpu time : 24187.6 secs   av.it.:  13.3
      thresh= 6.527E-07 alpha_mix =  0.700 |ddv_scf|^2 =  2.220E-12

      iter #   9 total cpu time : 24702.6 secs   av.it.:  14.0
      thresh= 1.490E-07 alpha_mix =  0.700 |ddv_scf|^2 =  5.032E-13

      iter #  10 total cpu time : 25203.4 secs   av.it.:  13.8
      thresh= 7.094E-08 alpha_mix =  0.700 |ddv_scf|^2 =  1.403E-13

      iter #  11 total cpu time : 25689.4 secs   av.it.:  13.5
      thresh= 3.746E-08 alpha_mix =  0.700 |ddv_scf|^2 =  1.729E-14

      iter #  12 total cpu time : 26199.9 secs   av.it.:  13.7
      thresh= 1.315E-08 alpha_mix =  0.700 |ddv_scf|^2 =  1.986E-15

     End of self-consistent calculation

     Convergence has been achieved 


     Representation #  3 mode #   3

     Self-consistent Calculation

      iter #   1 total cpu time : 26526.8 secs   av.it.:   7.8
      thresh= 1.000E-02 alpha_mix =  0.700 |ddv_scf|^2 =  9.876E-06

      iter #   2 total cpu time : 27000.8 secs   av.it.:  13.5
      thresh= 3.143E-04 alpha_mix =  0.700 |ddv_scf|^2 =  2.909E-05

      iter #   3 total cpu time : 27461.0 secs   av.it.:  11.7
      thresh= 5.393E-04 alpha_mix =  0.700 |ddv_scf|^2 =  2.864E-07

      iter #   4 total cpu time : 27956.4 secs   av.it.:  13.4
      thresh= 5.352E-05 alpha_mix =  0.700 |ddv_scf|^2 =  3.196E-08

      iter #   5 total cpu time : 28419.2 secs   av.it.:  13.0
      thresh= 1.788E-05 alpha_mix =  0.700 |ddv_scf|^2 =  8.550E-10

      iter #   6 total cpu time : 28948.5 secs   av.it.:  13.6
      thresh= 2.924E-06 alpha_mix =  0.700 |ddv_scf|^2 =  1.727E-10

      iter #   7 total cpu time : 29506.6 secs   av.it.:  13.6
      thresh= 1.314E-06 alpha_mix =  0.700 |ddv_scf|^2 =  2.514E-11

      iter #   8 total cpu time : 30071.0 secs   av.it.:  13.3
      thresh= 5.014E-07 alpha_mix =  0.700 |ddv_scf|^2 =  4.659E-13

      iter #   9 total cpu time : 30664.2 secs   av.it.:  14.7
      thresh= 6.826E-08 alpha_mix =  0.700 |ddv_scf|^2 =  2.068E-13

      iter #  10 total cpu time : 31167.1 secs   av.it.:  14.0
      thresh= 4.548E-08 alpha_mix =  0.700 |ddv_scf|^2 =  9.547E-14

      iter #  11 total cpu time : 31629.0 secs   av.it.:  13.7
      thresh= 3.090E-08 alpha_mix =  0.700 |ddv_scf|^2 =  1.849E-14

      iter #  12 total cpu time : 32060.4 secs   av.it.:  13.1
      thresh= 1.360E-08 alpha_mix =  0.700 |ddv_scf|^2 =  5.499E-15

     End of self-consistent calculation

     Convergence has been achieved 


     Representation #  4 mode #   4

     Self-consistent Calculation

      iter #   1 total cpu time : 32335.6 secs   av.it.:   7.4
      thresh= 1.000E-02 alpha_mix =  0.700 |ddv_scf|^2 =  3.847E-06

      iter #   2 total cpu time : 32799.8 secs   av.it.:  13.6
      thresh= 1.961E-04 alpha_mix =  0.700 |ddv_scf|^2 =  1.047E-05

      iter #   3 total cpu time : 33203.8 secs   av.it.:  11.7
      thresh= 3.236E-04 alpha_mix =  0.700 |ddv_scf|^2 =  1.547E-07

      iter #   4 total cpu time : 33626.9 secs   av.it.:  13.2
      thresh= 3.933E-05 alpha_mix =  0.700 |ddv_scf|^2 =  2.021E-08

      iter #   5 total cpu time : 34036.4 secs   av.it.:  13.0
      thresh= 1.422E-05 alpha_mix =  0.700 |ddv_scf|^2 =  5.208E-10

      iter #   6 total cpu time : 34447.2 secs   av.it.:  13.5
      thresh= 2.282E-06 alpha_mix =  0.700 |ddv_scf|^2 =  9.619E-11

      iter #   7 total cpu time : 34871.7 secs   av.it.:  13.6
      thresh= 9.808E-07 alpha_mix =  0.700 |ddv_scf|^2 =  2.453E-11

      iter #   8 total cpu time : 35293.9 secs   av.it.:  13.0
      thresh= 4.953E-07 alpha_mix =  0.700 |ddv_scf|^2 =  1.223E-12

      iter #   9 total cpu time : 35727.4 secs   av.it.:  14.0
      thresh= 1.106E-07 alpha_mix =  0.700 |ddv_scf|^2 =  1.812E-13

      iter #  10 total cpu time : 36162.4 secs   av.it.:  14.1
      thresh= 4.257E-08 alpha_mix =  0.700 |ddv_scf|^2 =  6.571E-14

      iter #  11 total cpu time : 36575.0 secs   av.it.:  13.6
      thresh= 2.563E-08 alpha_mix =  0.700 |ddv_scf|^2 =  4.162E-14

      iter #  12 total cpu time : 36972.3 secs   av.it.:  13.0
      thresh= 2.040E-08 alpha_mix =  0.700 |ddv_scf|^2 =  5.963E-15

     End of self-consistent calculation

     Convergence has been achieved 


     Representation #  5 mode #   5

     Self-consistent Calculation

      iter #   1 total cpu time : 37548.7 secs   av.it.:   8.9
      thresh= 1.000E-02 alpha_mix =  0.700 |ddv_scf|^2 =  4.351E-05

      iter #   2 total cpu time : 38396.9 secs   av.it.:  13.6
      thresh= 6.596E-04 alpha_mix =  0.700 |ddv_scf|^2 =  1.512E-04

      iter #   3 total cpu time : 39172.7 secs   av.it.:  11.8
      thresh= 1.230E-03 alpha_mix =  0.700 |ddv_scf|^2 =  8.882E-07

      iter #   4 total cpu time : 39982.4 secs   av.it.:  13.4
      thresh= 9.424E-05 alpha_mix =  0.700 |ddv_scf|^2 =  2.235E-08

      iter #   5 total cpu time : 40833.7 secs   av.it.:  13.4
      thresh= 1.495E-05 alpha_mix =  0.700 |ddv_scf|^2 =  6.623E-09

      iter #   6 total cpu time : 41761.2 secs   av.it.:  13.1
      thresh= 8.138E-06 alpha_mix =  0.700 |ddv_scf|^2 =  1.194E-09

      iter #   7 total cpu time : 42771.7 secs   av.it.:  13.1
      thresh= 3.455E-06 alpha_mix =  0.700 |ddv_scf|^2 =  4.303E-11

      iter #   8 total cpu time : 43861.3 secs   av.it.:  13.4
      thresh= 6.560E-07 alpha_mix =  0.700 |ddv_scf|^2 =  2.374E-12

      iter #   9 total cpu time : 44779.6 secs   av.it.:  14.2
      thresh= 1.541E-07 alpha_mix =  0.700 |ddv_scf|^2 =  6.910E-13

      iter #  10 total cpu time : 48118.9 secs   av.it.:  13.9
      thresh= 8.313E-08 alpha_mix =  0.700 |ddv_scf|^2 =  2.710E-13

      iter #  11 total cpu time : 66258.5 secs   av.it.:  13.5
      thresh= 5.206E-08 alpha_mix =  0.700 |ddv_scf|^2 =  1.679E-14

      iter #  12 total cpu time : 79598.7 secs   av.it.:  13.8
      thresh= 1.296E-08 alpha_mix =  0.700 |ddv_scf|^2 =  2.303E-15

     End of self-consistent calculation

     Convergence has been achieved 


     Representation #  6 mode #   6

     Self-consistent Calculation

      iter #   1 total cpu time : 80314.2 secs   av.it.:   8.4
      thresh= 1.000E-02 alpha_mix =  0.700 |ddv_scf|^2 =  5.611E-06

      iter #   2 total cpu time : 81119.6 secs   av.it.:  14.3
      thresh= 2.369E-04 alpha_mix =  0.700 |ddv_scf|^2 =  6.362E-06

      iter #   3 total cpu time : 81744.4 secs   av.it.:  13.4
      thresh= 2.522E-04 alpha_mix =  0.700 |ddv_scf|^2 =  7.719E-07

      iter #   4 total cpu time : 82276.2 secs   av.it.:  13.2
      thresh= 8.786E-05 alpha_mix =  0.700 |ddv_scf|^2 =  4.273E-09

      iter #   5 total cpu time : 82994.5 secs   av.it.:  13.4
      thresh= 6.537E-06 alpha_mix =  0.700 |ddv_scf|^2 =  4.162E-09

      iter #   6 total cpu time : 83347.2 secs   av.it.:  12.7
      thresh= 6.452E-06 alpha_mix =  0.700 |ddv_scf|^2 =  4.142E-11

      iter #   7 total cpu time : 83740.7 secs   av.it.:  14.4
      thresh= 6.436E-07 alpha_mix =  0.700 |ddv_scf|^2 =  3.180E-11

      iter #   8 total cpu time : 84095.7 secs   av.it.:  13.6
      thresh= 5.639E-07 alpha_mix =  0.700 |ddv_scf|^2 =  1.908E-12

      iter #   9 total cpu time : 84417.3 secs   av.it.:  14.0
      thresh= 1.381E-07 alpha_mix =  0.700 |ddv_scf|^2 =  5.313E-13

      iter #  10 total cpu time : 84718.2 secs   av.it.:  13.3
      thresh= 7.289E-08 alpha_mix =  0.700 |ddv_scf|^2 =  7.951E-14

      iter #  11 total cpu time : 85027.7 secs   av.it.:  13.6
      thresh= 2.820E-08 alpha_mix =  0.700 |ddv_scf|^2 =  8.822E-15

     End of self-consistent calculation

     Convergence has been achieved 


     Representation #  7 mode #   7

     Self-consistent Calculation

      iter #   1 total cpu time : 85226.7 secs   av.it.:   7.8
      thresh= 1.000E-02 alpha_mix =  0.700 |ddv_scf|^2 =  3.393E-06

      iter #   2 total cpu time : 85523.4 secs   av.it.:  14.0
      thresh= 1.842E-04 alpha_mix =  0.700 |ddv_scf|^2 =  7.983E-06

      iter #   3 total cpu time : 85786.8 secs   av.it.:  12.0
      thresh= 2.825E-04 alpha_mix =  0.700 |ddv_scf|^2 =  2.669E-07

      iter #   4 total cpu time : 86078.7 secs   av.it.:  13.0
      thresh= 5.166E-05 alpha_mix =  0.700 |ddv_scf|^2 =  8.571E-09

      iter #   5 total cpu time : 86369.5 secs   av.it.:  13.3
      thresh= 9.258E-06 alpha_mix =  0.700 |ddv_scf|^2 =  6.305E-10

      iter #   6 total cpu time : 86631.4 secs   av.it.:  13.5
      thresh= 2.511E-06 alpha_mix =  0.700 |ddv_scf|^2 =  7.276E-11

      iter #   7 total cpu time : 86854.0 secs   av.it.:  13.5
      thresh= 8.530E-07 alpha_mix =  0.700 |ddv_scf|^2 =  2.190E-11

      iter #   8 total cpu time : 87068.9 secs   av.it.:  13.2
      thresh= 4.680E-07 alpha_mix =  0.700 |ddv_scf|^2 =  9.256E-13

      iter #   9 total cpu time : 87297.5 secs   av.it.:  14.3
      thresh= 9.621E-08 alpha_mix =  0.700 |ddv_scf|^2 =  1.293E-13

      iter #  10 total cpu time : 87528.6 secs   av.it.:  14.2
      thresh= 3.596E-08 alpha_mix =  0.700 |ddv_scf|^2 =  1.761E-14

      iter #  11 total cpu time : 87750.3 secs   av.it.:  14.1
      thresh= 1.327E-08 alpha_mix =  0.700 |ddv_scf|^2 =  2.327E-14

      iter #  12 total cpu time : 87960.0 secs   av.it.:  13.1
      thresh= 1.525E-08 alpha_mix =  0.700 |ddv_scf|^2 =  1.113E-15

     End of self-consistent calculation

     Convergence has been achieved 


     Representation #  8 mode #   8

     Self-consistent Calculation

      iter #   1 total cpu time : 88095.0 secs   av.it.:   7.7
      thresh= 1.000E-02 alpha_mix =  0.700 |ddv_scf|^2 =  2.985E-06

      iter #   2 total cpu time : 88320.7 secs   av.it.:  14.0
      thresh= 1.728E-04 alpha_mix =  0.700 |ddv_scf|^2 =  4.667E-06

      iter #   3 total cpu time : 88527.7 secs   av.it.:  12.4
      thresh= 2.160E-04 alpha_mix =  0.700 |ddv_scf|^2 =  4.349E-07

      iter #   4 total cpu time : 88733.8 secs   av.it.:  12.6
      thresh= 6.595E-05 alpha_mix =  0.700 |ddv_scf|^2 =  6.410E-09

      iter #   5 total cpu time : 88951.5 secs   av.it.:  13.5
      thresh= 8.006E-06 alpha_mix =  0.700 |ddv_scf|^2 =  7.312E-10

      iter #   6 total cpu time : 89164.6 secs   av.it.:  13.1
      thresh= 2.704E-06 alpha_mix =  0.700 |ddv_scf|^2 =  5.669E-11

      iter #   7 total cpu time : 89384.8 secs   av.it.:  14.0
      thresh= 7.529E-07 alpha_mix =  0.700 |ddv_scf|^2 =  2.145E-11

      iter #   8 total cpu time : 89594.8 secs   av.it.:  13.2
      thresh= 4.631E-07 alpha_mix =  0.700 |ddv_scf|^2 =  1.183E-12

      iter #   9 total cpu time : 89814.5 secs   av.it.:  13.5
      thresh= 1.088E-07 alpha_mix =  0.700 |ddv_scf|^2 =  1.444E-13

      iter #  10 total cpu time : 90040.0 secs   av.it.:  14.1
      thresh= 3.800E-08 alpha_mix =  0.700 |ddv_scf|^2 =  9.791E-15

     End of self-consistent calculation

     Convergence has been achieved 


     Representation #  9 mode #   9

     Self-consistent Calculation

      iter #   1 total cpu time : 90189.6 secs   av.it.:   8.5
      thresh= 1.000E-02 alpha_mix =  0.700 |ddv_scf|^2 =  8.056E-06

      iter #   2 total cpu time : 90416.2 secs   av.it.:  14.3
      thresh= 2.838E-04 alpha_mix =  0.700 |ddv_scf|^2 =  1.519E-05

      iter #   3 total cpu time : 90622.9 secs   av.it.:  12.7
      thresh= 3.897E-04 alpha_mix =  0.700 |ddv_scf|^2 =  1.059E-06

      iter #   4 total cpu time : 90836.6 secs   av.it.:  13.0
      thresh= 1.029E-04 alpha_mix =  0.700 |ddv_scf|^2 =  6.515E-09

      iter #   5 total cpu time : 91058.5 secs   av.it.:  13.9
      thresh= 8.071E-06 alpha_mix =  0.700 |ddv_scf|^2 =  4.364E-09

      iter #   6 total cpu time : 91270.5 secs   av.it.:  13.2
      thresh= 6.606E-06 alpha_mix =  0.700 |ddv_scf|^2 =  2.588E-10

      iter #   7 total cpu time : 91492.4 secs   av.it.:  13.8
      thresh= 1.609E-06 alpha_mix =  0.700 |ddv_scf|^2 =  7.531E-11

      iter #   8 total cpu time : 91701.0 secs   av.it.:  12.9
      thresh= 8.678E-07 alpha_mix =  0.700 |ddv_scf|^2 =  1.598E-12

      iter #   9 total cpu time : 91932.5 secs   av.it.:  14.3
      thresh= 1.264E-07 alpha_mix =  0.700 |ddv_scf|^2 =  8.088E-13

      iter #  10 total cpu time : 92148.6 secs   av.it.:  13.5
      thresh= 8.993E-08 alpha_mix =  0.700 |ddv_scf|^2 =  9.900E-14

      iter #  11 total cpu time : 92380.8 secs   av.it.:  14.1
      thresh= 3.146E-08 alpha_mix =  0.700 |ddv_scf|^2 =  1.500E-14

      iter #  12 total cpu time : 92601.3 secs   av.it.:  13.9
      thresh= 1.225E-08 alpha_mix =  0.700 |ddv_scf|^2 =  4.115E-15

     End of self-consistent calculation

     Convergence has been achieved 


     Representation # 10 mode #  10

     Self-consistent Calculation

      iter #   1 total cpu time : 92743.4 secs   av.it.:   7.7
      thresh= 1.000E-02 alpha_mix =  0.700 |ddv_scf|^2 =  2.097E-06

      iter #   2 total cpu time : 92940.3 secs   av.it.:  14.2
      thresh= 1.448E-04 alpha_mix =  0.700 |ddv_scf|^2 =  3.508E-06

      iter #   3 total cpu time : 93109.2 secs   av.it.:  12.4
      thresh= 1.873E-04 alpha_mix =  0.700 |ddv_scf|^2 =  3.111E-07

      iter #   4 total cpu time : 93283.0 secs   av.it.:  12.7
      thresh= 5.578E-05 alpha_mix =  0.700 |ddv_scf|^2 =  5.078E-09

      iter #   5 total cpu time : 93459.0 secs   av.it.:  13.5
      thresh= 7.126E-06 alpha_mix =  0.700 |ddv_scf|^2 =  5.195E-10

      iter #   6 total cpu time : 93635.3 secs   av.it.:  13.4
      thresh= 2.279E-06 alpha_mix =  0.700 |ddv_scf|^2 =  6.552E-11

      iter #   7 total cpu time : 93811.6 secs   av.it.:  13.6
      thresh= 8.094E-07 alpha_mix =  0.700 |ddv_scf|^2 =  1.666E-11

      iter #   8 total cpu time : 93984.5 secs   av.it.:  13.3
      thresh= 4.081E-07 alpha_mix =  0.700 |ddv_scf|^2 =  7.281E-13

      iter #   9 total cpu time : 94162.3 secs   av.it.:  13.7
      thresh= 8.533E-08 alpha_mix =  0.700 |ddv_scf|^2 =  8.776E-14

      iter #  10 total cpu time : 94348.7 secs   av.it.:  14.4
      thresh= 2.962E-08 alpha_mix =  0.700 |ddv_scf|^2 =  3.744E-14

      iter #  11 total cpu time : 94551.5 secs   av.it.:  13.8
      thresh= 1.935E-08 alpha_mix =  0.700 |ddv_scf|^2 =  2.907E-14

      iter #  12 total cpu time : 94726.0 secs   av.it.:  13.2
      thresh= 1.705E-08 alpha_mix =  0.700 |ddv_scf|^2 =  2.970E-15

     End of self-consistent calculation

     Convergence has been achieved 


     Representation # 11 mode #  11

     Self-consistent Calculation

      iter #   1 total cpu time : 94858.6 secs   av.it.:   7.8
      thresh= 1.000E-02 alpha_mix =  0.700 |ddv_scf|^2 =  8.577E-06

      iter #   2 total cpu time : 95036.5 secs   av.it.:  13.6
      thresh= 2.929E-04 alpha_mix =  0.700 |ddv_scf|^2 =  2.459E-05

      iter #   3 total cpu time : 95191.6 secs   av.it.:  11.7
      thresh= 4.959E-04 alpha_mix =  0.700 |ddv_scf|^2 =  2.773E-07

      iter #   4 total cpu time : 95365.0 secs   av.it.:  13.4
      thresh= 5.266E-05 alpha_mix =  0.700 |ddv_scf|^2 =  2.931E-08

      iter #   5 total cpu time : 95543.5 secs   av.it.:  13.0
      thresh= 1.712E-05 alpha_mix =  0.700 |ddv_scf|^2 =  8.862E-10

      iter #   6 total cpu time : 95721.1 secs   av.it.:  13.6
      thresh= 2.977E-06 alpha_mix =  0.700 |ddv_scf|^2 =  1.562E-10

      iter #   7 total cpu time : 95901.6 secs   av.it.:  13.7
      thresh= 1.250E-06 alpha_mix =  0.700 |ddv_scf|^2 =  2.334E-11

      iter #   8 total cpu time : 96075.5 secs   av.it.:  13.5
      thresh= 4.831E-07 alpha_mix =  0.700 |ddv_scf|^2 =  6.200E-13

      iter #   9 total cpu time : 96261.6 secs   av.it.:  14.7
      thresh= 7.874E-08 alpha_mix =  0.700 |ddv_scf|^2 =  2.333E-13

      iter #  10 total cpu time : 96440.3 secs   av.it.:  14.0
      thresh= 4.830E-08 alpha_mix =  0.700 |ddv_scf|^2 =  1.035E-13

      iter #  11 total cpu time : 96618.6 secs   av.it.:  13.8
      thresh= 3.217E-08 alpha_mix =  0.700 |ddv_scf|^2 =  1.910E-14

      iter #  12 total cpu time : 96790.3 secs   av.it.:  13.2
      thresh= 1.382E-08 alpha_mix =  0.700 |ddv_scf|^2 =  4.627E-15

     End of self-consistent calculation

     Convergence has been achieved 


     Representation # 12 mode #  12

     Self-consistent Calculation

      iter #   1 total cpu time : 96903.9 secs   av.it.:   7.4
      thresh= 1.000E-02 alpha_mix =  0.700 |ddv_scf|^2 =  1.002E-06

      iter #   2 total cpu time : 97088.6 secs   av.it.:  14.2
      thresh= 1.001E-04 alpha_mix =  0.700 |ddv_scf|^2 =  1.530E-07

      iter #   3 total cpu time : 97270.7 secs   av.it.:  14.2
      thresh= 3.912E-05 alpha_mix =  0.700 |ddv_scf|^2 =  4.338E-08

      iter #   4 total cpu time : 97447.2 secs   av.it.:  13.1
      thresh= 2.083E-05 alpha_mix =  0.700 |ddv_scf|^2 =  3.585E-09

      iter #   5 total cpu time : 97622.5 secs   av.it.:  13.5
      thresh= 5.987E-06 alpha_mix =  0.700 |ddv_scf|^2 =  2.044E-11

      iter #   6 total cpu time : 97805.5 secs   av.it.:  14.1
      thresh= 4.521E-07 alpha_mix =  0.700 |ddv_scf|^2 =  7.546E-13

      iter #   7 total cpu time : 97989.1 secs   av.it.:  14.3
      thresh= 8.687E-08 alpha_mix =  0.700 |ddv_scf|^2 =  6.819E-14

      iter #   8 total cpu time : 98177.6 secs   av.it.:  14.2
      thresh= 2.611E-08 alpha_mix =  0.700 |ddv_scf|^2 =  3.879E-15

     End of self-consistent calculation

     Convergence has been achieved 


     Representation # 13 mode #  13

     Self-consistent Calculation

      iter #   1 total cpu time : 98298.4 secs   av.it.:   8.3
      thresh= 1.000E-02 alpha_mix =  0.700 |ddv_scf|^2 =  5.341E-06

      iter #   2 total cpu time : 98489.2 secs   av.it.:  14.2
      thresh= 2.311E-04 alpha_mix =  0.700 |ddv_scf|^2 =  5.331E-06

      iter #   3 total cpu time : 98662.0 secs   av.it.:  13.3
      thresh= 2.309E-04 alpha_mix =  0.700 |ddv_scf|^2 =  6.758E-07

      iter #   4 total cpu time : 98831.6 secs   av.it.:  13.1
      thresh= 8.221E-05 alpha_mix =  0.700 |ddv_scf|^2 =  6.574E-10

      iter #   5 total cpu time : 99010.3 secs   av.it.:  13.9
      thresh= 2.564E-06 alpha_mix =  0.700 |ddv_scf|^2 =  4.168E-11

      iter #   6 total cpu time : 99186.0 secs   av.it.:  13.7
      thresh= 6.456E-07 alpha_mix =  0.700 |ddv_scf|^2 =  1.127E-11

      iter #   7 total cpu time : 99356.8 secs   av.it.:  13.3
      thresh= 3.357E-07 alpha_mix =  0.700 |ddv_scf|^2 =  1.997E-13

      iter #   8 total cpu time : 99530.8 secs   av.it.:  13.6
      thresh= 4.468E-08 alpha_mix =  0.700 |ddv_scf|^2 =  2.430E-15

     End of self-consistent calculation

     Convergence has been achieved 


     Representation # 14 mode #  14

     Self-consistent Calculation

      iter #   1 total cpu time : 99644.3 secs   av.it.:   6.8
      thresh= 1.000E-02 alpha_mix =  0.700 |ddv_scf|^2 =  8.095E-07

      iter #   2 total cpu time : 99825.0 secs   av.it.:  13.7
      thresh= 8.997E-05 alpha_mix =  0.700 |ddv_scf|^2 =  4.884E-08

      iter #   3 total cpu time :100008.0 secs   av.it.:  14.2
      thresh= 2.210E-05 alpha_mix =  0.700 |ddv_scf|^2 =  2.511E-08

      iter #   4 total cpu time :100212.4 secs   av.it.:  13.0
      thresh= 1.585E-05 alpha_mix =  0.700 |ddv_scf|^2 =  1.011E-09

      iter #   5 total cpu time :100390.4 secs   av.it.:  13.7
      thresh= 3.179E-06 alpha_mix =  0.700 |ddv_scf|^2 =  2.873E-11

      iter #   6 total cpu time :100573.2 secs   av.it.:  14.2
      thresh= 5.360E-07 alpha_mix =  0.700 |ddv_scf|^2 =  7.716E-13

      iter #   7 total cpu time :100762.3 secs   av.it.:  14.2
      thresh= 8.784E-08 alpha_mix =  0.700 |ddv_scf|^2 =  3.786E-14

      iter #   8 total cpu time :100944.2 secs   av.it.:  14.0
      thresh= 1.946E-08 alpha_mix =  0.700 |ddv_scf|^2 =  2.149E-15

     End of self-consistent calculation

     Convergence has been achieved 


     Representation # 15 mode #  15

     Self-consistent Calculation

      iter #   1 total cpu time :101067.5 secs   av.it.:   7.4
      thresh= 1.000E-02 alpha_mix =  0.700 |ddv_scf|^2 =  8.056E-07

      iter #   2 total cpu time :101261.3 secs   av.it.:  14.3
      thresh= 8.975E-05 alpha_mix =  0.700 |ddv_scf|^2 =  8.271E-08

      iter #   3 total cpu time :101445.6 secs   av.it.:  14.4
      thresh= 2.876E-05 alpha_mix =  0.700 |ddv_scf|^2 =  3.201E-08

      iter #   4 total cpu time :101614.9 secs   av.it.:  13.0
      thresh= 1.789E-05 alpha_mix =  0.700 |ddv_scf|^2 =  2.048E-09

      iter #   5 total cpu time :101794.0 secs   av.it.:  13.6
      thresh= 4.525E-06 alpha_mix =  0.700 |ddv_scf|^2 =  1.784E-11

      iter #   6 total cpu time :101973.8 secs   av.it.:  14.0
      thresh= 4.224E-07 alpha_mix =  0.700 |ddv_scf|^2 =  7.288E-13

      iter #   7 total cpu time :102158.7 secs   av.it.:  14.5
      thresh= 8.537E-08 alpha_mix =  0.700 |ddv_scf|^2 =  1.400E-13

      iter #   8 total cpu time :102339.6 secs   av.it.:  14.2
      thresh= 3.741E-08 alpha_mix =  0.700 |ddv_scf|^2 =  7.599E-15

     End of self-consistent calculation

     Convergence has been achieved 


     Representation # 16 mode #  16

     Self-consistent Calculation

      iter #   1 total cpu time :102483.9 secs   av.it.:   6.8
      thresh= 1.000E-02 alpha_mix =  0.700 |ddv_scf|^2 =  8.095E-07

      iter #   2 total cpu time :102663.6 secs   av.it.:  13.7
      thresh= 8.997E-05 alpha_mix =  0.700 |ddv_scf|^2 =  4.884E-08

      iter #   3 total cpu time :102856.3 secs   av.it.:  14.2
      thresh= 2.210E-05 alpha_mix =  0.700 |ddv_scf|^2 =  2.511E-08

      iter #   4 total cpu time :103041.6 secs   av.it.:  13.0
      thresh= 1.585E-05 alpha_mix =  0.700 |ddv_scf|^2 =  1.011E-09

      iter #   5 total cpu time :103252.0 secs   av.it.:  13.7
      thresh= 3.179E-06 alpha_mix =  0.700 |ddv_scf|^2 =  2.873E-11

      iter #   6 total cpu time :103436.2 secs   av.it.:  14.2
      thresh= 5.360E-07 alpha_mix =  0.700 |ddv_scf|^2 =  7.716E-13

      iter #   7 total cpu time :103617.6 secs   av.it.:  14.2
      thresh= 8.784E-08 alpha_mix =  0.700 |ddv_scf|^2 =  3.786E-14

      iter #   8 total cpu time :103795.7 secs   av.it.:  14.0
      thresh= 1.946E-08 alpha_mix =  0.700 |ddv_scf|^2 =  2.149E-15

     End of self-consistent calculation

     Convergence has been achieved 


     Representation # 17 mode #  17

     Self-consistent Calculation

      iter #   1 total cpu time :103921.1 secs   av.it.:   8.1
      thresh= 1.000E-02 alpha_mix =  0.700 |ddv_scf|^2 =  4.907E-06

      iter #   2 total cpu time :104103.8 secs   av.it.:  14.1
      thresh= 2.215E-04 alpha_mix =  0.700 |ddv_scf|^2 =  3.126E-06

      iter #   3 total cpu time :104277.8 secs   av.it.:  13.5
      thresh= 1.768E-04 alpha_mix =  0.700 |ddv_scf|^2 =  5.084E-07

      iter #   4 total cpu time :104446.1 secs   av.it.:  12.9
      thresh= 7.130E-05 alpha_mix =  0.700 |ddv_scf|^2 =  7.090E-10

      iter #   5 total cpu time :104623.5 secs   av.it.:  13.9
      thresh= 2.663E-06 alpha_mix =  0.700 |ddv_scf|^2 =  2.654E-11

      iter #   6 total cpu time :104806.8 secs   av.it.:  14.1
      thresh= 5.152E-07 alpha_mix =  0.700 |ddv_scf|^2 =  8.596E-12

      iter #   7 total cpu time :104980.8 secs   av.it.:  13.4
      thresh= 2.932E-07 alpha_mix =  0.700 |ddv_scf|^2 =  1.701E-13

      iter #   8 total cpu time :105157.0 secs   av.it.:  13.7
      thresh= 4.125E-08 alpha_mix =  0.700 |ddv_scf|^2 =  4.126E-15

     End of self-consistent calculation

     Convergence has been achieved 


     Representation # 18 mode #  18

     Self-consistent Calculation

      iter #   1 total cpu time :105270.8 secs   av.it.:   7.5
      thresh= 1.000E-02 alpha_mix =  0.700 |ddv_scf|^2 =  1.025E-06

      iter #   2 total cpu time :105456.4 secs   av.it.:  14.3
      thresh= 1.012E-04 alpha_mix =  0.700 |ddv_scf|^2 =  2.813E-07

      iter #   3 total cpu time :105690.2 secs   av.it.:  13.9
      thresh= 5.304E-05 alpha_mix =  0.700 |ddv_scf|^2 =  9.498E-08

      iter #   4 total cpu time :105858.2 secs   av.it.:  12.7
      thresh= 3.082E-05 alpha_mix =  0.700 |ddv_scf|^2 =  3.477E-09

      iter #   5 total cpu time :106035.5 secs   av.it.:  13.7
      thresh= 5.897E-06 alpha_mix =  0.700 |ddv_scf|^2 =  1.690E-11

      iter #   6 total cpu time :106215.6 secs   av.it.:  14.1
      thresh= 4.111E-07 alpha_mix =  0.700 |ddv_scf|^2 =  6.606E-13

      iter #   7 total cpu time :106401.1 secs   av.it.:  14.4
      thresh= 8.128E-08 alpha_mix =  0.700 |ddv_scf|^2 =  7.512E-14

      iter #   8 total cpu time :106583.3 secs   av.it.:  14.3
      thresh= 2.741E-08 alpha_mix =  0.700 |ddv_scf|^2 =  3.425E-15

     End of self-consistent calculation

     Convergence has been achieved 
 
     Number of q in the star =    2
     List of q in the star:
          1   0.000000000   0.000000000   0.496328851
          2   0.000000000   0.000000000  -0.496328851

     Diagonalizing the dynamical matrix

     q = (    0.000000000   0.000000000   0.496328851 ) 

 **************************************************************************
     freq (    1) =       3.119716 [THz] =     104.062531 [cm-1]
     freq (    2) =       3.119767 [THz] =     104.064211 [cm-1]
     freq (    3) =       5.557199 [THz] =     185.368195 [cm-1]
     freq (    4) =       5.801705 [THz] =     193.524055 [cm-1]
     freq (    5) =       5.813012 [THz] =     193.901198 [cm-1]
     freq (    6) =       6.839632 [THz] =     228.145562 [cm-1]
     freq (    7) =       6.996503 [THz] =     233.378232 [cm-1]
     freq (    8) =       7.006872 [THz] =     233.724108 [cm-1]
     freq (    9) =       7.801931 [THz] =     260.244394 [cm-1]
     freq (   10) =       8.800280 [THz] =     293.545751 [cm-1]
     freq (   11) =      15.257871 [THz] =     508.947787 [cm-1]
     freq (   12) =      15.267727 [THz] =     509.276566 [cm-1]
     freq (   13) =      15.899697 [THz] =     530.356804 [cm-1]
     freq (   14) =      15.915442 [THz] =     530.882010 [cm-1]
     freq (   15) =      16.588974 [THz] =     553.348602 [cm-1]
     freq (   16) =      17.704765 [THz] =     590.567391 [cm-1]
     freq (   17) =      18.896558 [THz] =     630.321339 [cm-1]
     freq (   18) =      20.335479 [THz] =     678.318576 [cm-1]
 **************************************************************************

     Mode symmetry, C_s (m)     point group:

     freq (  1 -  1) =        104.1  [cm-1]   --> A'                 
     freq (  2 -  2) =        104.1  [cm-1]   --> A''                
     freq (  3 -  3) =        185.4  [cm-1]   --> A''                
     freq (  4 -  4) =        193.5  [cm-1]   --> A''                
     freq (  5 -  5) =        193.9  [cm-1]   --> A'                 
     freq (  6 -  6) =        228.1  [cm-1]   --> A'                 
     freq (  7 -  7) =        233.4  [cm-1]   --> A'                 
     freq (  8 -  8) =        233.7  [cm-1]   --> A''                
     freq (  9 -  9) =        260.2  [cm-1]   --> A'                 
     freq ( 10 - 10) =        293.5  [cm-1]   --> A''                
     freq ( 11 - 11) =        508.9  [cm-1]   --> A''                
     freq ( 12 - 12) =        509.3  [cm-1]   --> A'                 
     freq ( 13 - 13) =        530.4  [cm-1]   --> A'                 
     freq ( 14 - 14) =        530.9  [cm-1]   --> A''                
     freq ( 15 - 15) =        553.3  [cm-1]   --> A'                 
     freq ( 16 - 16) =        590.6  [cm-1]   --> A'                 
     freq ( 17 - 17) =        630.3  [cm-1]   --> A'                 
     freq ( 18 - 18) =        678.3  [cm-1]   --> A'                 

     Calculation of q =    0.0000000   0.3333333   0.0000000
 
     Parallelization info
     --------------------
     sticks:   dense  smooth     PW     G-vecs:    dense   smooth      PW
     Min          62      62     18                 1404     1404     228
     Max          63      63     19                 1405     1405     231
     Sum        2001    2001    593                44945    44945    7339
 

     Title: 
     Phonon dispersions for SnO2                                                


     bravais-lattice index     =            6
     lattice parameter (alat)  =       9.1370  a.u.
     unit-cell volume          =     512.3005 (a.u.)^3
     number of atoms/cell      =            6
     number of atomic types    =            2
     number of electrons       =        52.00
     number of Kohn-Sham states=           26
     kinetic-energy cutoff     =      75.0000  Ry
     charge density cutoff     =     300.0000  Ry
     Exchange-correlation      = PBE ( 1  4  3  4 0 0)

     celldm(1)=   9.137033  celldm(2)=   1.000000  celldm(3)=   0.671598
     celldm(4)=   0.000000  celldm(5)=   0.000000  celldm(6)=   0.000000

     crystal axes: (cart. coord. in units of alat)
               a(1) = (   1.000000   0.000000   0.000000 )  
               a(2) = (   0.000000   1.000000   0.000000 )  
               a(3) = (   0.000000   0.000000   0.671598 )  

     reciprocal axes: (cart. coord. in units 2 pi/alat)
               b(1) = (  1.000000  0.000000  0.000000 )  
               b(2) = (  0.000000  1.000000  0.000000 )  
               b(3) = (  0.000000  0.000000  1.488987 )  


     PseudoPot. # 1 for Sn read from file:
     ../../Pseudo_potentials/Sn_PBE.upf
     MD5 check sum: 78e6386ae56e929f0568ae8bf606a80c
     Pseudo is Norm-conserving + core correction, Zval = 14.0
     Generated using ONCVPSP code by D. R. Hamann
     Using radial grid of 1628 points,  6 beta functions with: 
                l(1) =   0
                l(2) =   0
                l(3) =   1
                l(4) =   1
                l(5) =   2
                l(6) =   2

     PseudoPot. # 2 for O  read from file:
     ../../Pseudo_potentials/O_PBE.upf
     MD5 check sum: 3e3f909f7470e8921608ab6b1f57bbae
     Pseudo is Norm-conserving + core correction, Zval =  6.0
     Generated using ONCVPSP code by D. R. Hamann
     Using radial grid of  936 points,  5 beta functions with: 
                l(1) =   0
                l(2) =   0
                l(3) =   1
                l(4) =   1
                l(5) =   2

     atomic species   valence    mass     pseudopotential
        Sn            14.00   118.71000     Sn( 1.00)
        O              6.00    15.99900     O ( 1.00)

      4 Sym. Ops. (no inversion) found



   Cartesian axes

     site n.     atom                  positions (alat units)
         1           Sn  tau(   1) = (  -0.0003320  -0.0003320   0.0000000  )
         2           Sn  tau(   2) = (   0.4996675   0.4996675   0.3357989  )
         3           O   tau(   3) = (   0.8063692   0.1929618   0.3357989  )
         4           O   tau(   4) = (   0.1929618   0.8063692   0.3357989  )
         5           O   tau(   5) = (   0.3063705   0.3063705   0.0000000  )
         6           O   tau(   6) = (   0.6929630   0.6929630   0.0000000  )

     number of k points=   288

     Number of k-points >= 100: set verbosity='high' to print them.

     Dense  grid:    44945 G-vectors     FFT dimensions: (  54,  54,  36)

     Estimated max dynamical RAM per process >       5.65 MB

     Estimated total dynamical RAM >     180.79 MB

     Check: negative/imaginary core charge=   -0.000002    0.000000

     The potential is recalculated from file :
     ./_ph0/epw.save/charge-density.dat

     Starting wfc are   34 atomic wfcs

     Band Structure Calculation
     Davidson diagonalization with overlap

     ethr =  1.92E-11,  avg # of iterations = 12.3

     total cpu time spent up to now is      603.2 secs

     End of band structure calculation

     Number of k-points >= 100: set verbosity='high' to print the bands.

     highest occupied level (ev):     8.9027

     Writing output data file epw.save

     Phonon dispersions for SnO2                                                

     bravais-lattice index     =            6
     lattice parameter (alat)  =       9.1370  a.u.
     unit-cell volume          =     512.3005 (a.u.)^3
     number of atoms/cell      =            6
     number of atomic types    =            2
     kinetic-energy cut-off    =      75.0000  Ry
     charge density cut-off    =     300.0000  Ry
     convergence threshold     =      1.0E-14
     beta                      =       0.7000
     number of iterations used =            4
     Exchange-correlation      = PBE ( 1  4  3  4 0 0)


     celldm(1)=    9.13703  celldm(2)=    1.00000  celldm(3)=    0.67160
     celldm(4)=    0.00000  celldm(5)=    0.00000  celldm(6)=    0.00000

     crystal axes: (cart. coord. in units of alat)
               a(1) = (  1.0000  0.0000  0.0000 )  
               a(2) = (  0.0000  1.0000  0.0000 )  
               a(3) = (  0.0000  0.0000  0.6716 )  

     reciprocal axes: (cart. coord. in units 2 pi/alat)
[...]
     freq (   10) =       9.770164 [THz] =     325.897590 [cm-1]
     freq (   11) =      12.819767 [THz] =     427.621384 [cm-1]
     freq (   12) =      13.096920 [THz] =     436.866215 [cm-1]
     freq (   13) =      14.377308 [THz] =     479.575357 [cm-1]
     freq (   14) =      15.517659 [THz] =     517.613397 [cm-1]
     freq (   15) =      16.467327 [THz] =     549.290900 [cm-1]
     freq (   16) =      16.958583 [THz] =     565.677451 [cm-1]
     freq (   17) =      20.867744 [THz] =     696.073027 [cm-1]
     freq (   18) =      21.122056 [THz] =     704.555942 [cm-1]
 **************************************************************************

     Mode symmetry, C_s (m)     point group:

     freq (  1 -  1) =         79.2  [cm-1]   --> A''                
     freq (  2 -  2) =        108.0  [cm-1]   --> A'                 
     freq (  3 -  3) =        122.1  [cm-1]   --> A'                 
     freq (  4 -  4) =        126.5  [cm-1]   --> A''                
     freq (  5 -  5) =        139.6  [cm-1]   --> A'                 
     freq (  6 -  6) =        210.1  [cm-1]   --> A'                 
     freq (  7 -  7) =        225.3  [cm-1]   --> A'                 
     freq (  8 -  8) =        228.6  [cm-1]   --> A'                 
     freq (  9 -  9) =        311.3  [cm-1]   --> A'                 
     freq ( 10 - 10) =        325.9  [cm-1]   --> A'                 
     freq ( 11 - 11) =        427.6  [cm-1]   --> A''                
     freq ( 12 - 12) =        436.9  [cm-1]   --> A''                
     freq ( 13 - 13) =        479.6  [cm-1]   --> A''                
     freq ( 14 - 14) =        517.6  [cm-1]   --> A''                
     freq ( 15 - 15) =        549.3  [cm-1]   --> A'                 
     freq ( 16 - 16) =        565.7  [cm-1]   --> A'                 
     freq ( 17 - 17) =        696.1  [cm-1]   --> A'                 
     freq ( 18 - 18) =        704.6  [cm-1]   --> A'                 

     Calculation of q =    0.0000000   0.3333333   0.4963289
 
     Parallelization info
     --------------------
     sticks:   dense  smooth     PW     G-vecs:    dense   smooth      PW
     Min          62      62     19                 1404     1404     241
     Max          63      63     20                 1405     1405     244
     Sum        2001    2001    613                44945    44945    7743
 

     Title: 
     Phonon dispersions for SnO2                                                


     bravais-lattice index     =            6
     lattice parameter (alat)  =       9.1370  a.u.
     unit-cell volume          =     512.3005 (a.u.)^3
     number of atoms/cell      =            6
     number of atomic types    =            2
     number of electrons       =        52.00
     number of Kohn-Sham states=           26
     kinetic-energy cutoff     =      75.0000  Ry
     charge density cutoff     =     300.0000  Ry
     Exchange-correlation      = PBE ( 1  4  3  4 0 0)

     celldm(1)=   9.137033  celldm(2)=   1.000000  celldm(3)=   0.671598
     celldm(4)=   0.000000  celldm(5)=   0.000000  celldm(6)=   0.000000

     crystal axes: (cart. coord. in units of alat)
               a(1) = (   1.000000   0.000000   0.000000 )  
               a(2) = (   0.000000   1.000000   0.000000 )  
               a(3) = (   0.000000   0.000000   0.671598 )  

     reciprocal axes: (cart. coord. in units 2 pi/alat)
               b(1) = (  1.000000  0.000000  0.000000 )  
               b(2) = (  0.000000  1.000000  0.000000 )  
               b(3) = (  0.000000  0.000000  1.488987 )  


     PseudoPot. # 1 for Sn read from file:
     ../../Pseudo_potentials/Sn_PBE.upf
     MD5 check sum: 78e6386ae56e929f0568ae8bf606a80c
     Pseudo is Norm-conserving + core correction, Zval = 14.0
     Generated using ONCVPSP code by D. R. Hamann
     Using radial grid of 1628 points,  6 beta functions with: 
                l(1) =   0
                l(2) =   0
                l(3) =   1
                l(4) =   1
                l(5) =   2
                l(6) =   2

     PseudoPot. # 2 for O  read from file:
     ../../Pseudo_potentials/O_PBE.upf
     MD5 check sum: 3e3f909f7470e8921608ab6b1f57bbae
     Pseudo is Norm-conserving + core correction, Zval =  6.0
     Generated using ONCVPSP code by D. R. Hamann
     Using radial grid of  936 points,  5 beta functions with: 
                l(1) =   0
                l(2) =   0
                l(3) =   1
                l(4) =   1
                l(5) =   2

     atomic species   valence    mass     pseudopotential
        Sn            14.00   118.71000     Sn( 1.00)
        O              6.00    15.99900     O ( 1.00)

      4 Sym. Ops. (no inversion) found



   Cartesian axes

     site n.     atom                  positions (alat units)
         1           Sn  tau(   1) = (  -0.0003320  -0.0003320   0.0000000  )
         2           Sn  tau(   2) = (   0.4996675   0.4996675   0.3357989  )
         3           O   tau(   3) = (   0.8063692   0.1929618   0.3357989  )
         4           O   tau(   4) = (   0.1929618   0.8063692   0.3357989  )
         5           O   tau(   5) = (   0.3063705   0.3063705   0.0000000  )
         6           O   tau(   6) = (   0.6929630   0.6929630   0.0000000  )

     number of k points=   432

     Number of k-points >= 100: set verbosity='high' to print them.

     Dense  grid:    44945 G-vectors     FFT dimensions: (  54,  54,  36)

     Estimated max dynamical RAM per process >       5.69 MB

     Estimated total dynamical RAM >     182.11 MB

     Check: negative/imaginary core charge=   -0.000002    0.000000

     The potential is recalculated from file :
     ./_ph0/epw.save/charge-density.dat

     Starting wfc are   34 atomic wfcs

     Band Structure Calculation
     Davidson diagonalization with overlap

     ethr =  1.92E-11,  avg # of iterations = 12.2

     total cpu time spent up to now is     2869.2 secs

     End of band structure calculation

     Number of k-points >= 100: set verbosity='high' to print the bands.

     highest occupied level (ev):     8.9027

     Writing output data file epw.save

     Phonon dispersions for SnO2                                                

     bravais-lattice index     =            6
     lattice parameter (alat)  =       9.1370  a.u.
     unit-cell volume          =     512.3005 (a.u.)^3
     number of atoms/cell      =            6
     number of atomic types    =            2
     kinetic-energy cut-off    =      75.0000  Ry
     charge density cut-off    =     300.0000  Ry
     convergence threshold     =      1.0E-14
     beta                      =       0.7000
     number of iterations used =            4
     Exchange-correlation      = PBE ( 1  4  3  4 0 0)


     celldm(1)=    9.13703  celldm(2)=    1.00000  celldm(3)=    0.67160
     celldm(4)=    0.00000  celldm(5)=    0.00000  celldm(6)=    0.00000

     crystal axes: (cart. coord. in units of alat)
               a(1) = (  1.0000  0.0000  0.0000 )  
               a(2) = (  0.0000  1.0000  0.0000 )  
               a(3) = (  0.0000  0.0000  0.6716 )  

     reciprocal axes: (cart. coord. in units 2 pi/alat)
               b(1) = (  1.0000  0.0000  0.0000 )  
               b(2) = (  0.0000  1.0000  0.0000 )  
               b(3) = (  0.0000  0.0000  1.4890 )  


     Atoms inside the unit cell: 

     Cartesian axes

     site n.  atom      mass           positions (alat units)
        1     Sn 118.7100   tau(    1) = (   -0.00033   -0.00033    0.00000  )
        2     Sn 118.7100   tau(    2) = (    0.49967    0.49967    0.33580  )
        3     O   15.9990   tau(    3) = (    0.80637    0.19296    0.33580  )
        4     O   15.9990   tau(    4) = (    0.19296    0.80637    0.33580  )
        5     O   15.9990   tau(    5) = (    0.30637    0.30637    0.00000  )
        6     O   15.9990   tau(    6) = (    0.69296    0.69296    0.00000  )

     Computing dynamical matrix for 
                    q = (   0.0000000   0.3333333   0.4963289 )
 
     No symmetry!

     G cutoff =  634.4127  (   1405 G-vectors)     FFT grid: ( 54, 54, 36)
     number of k points=   432

     PseudoPot. # 1 for Sn read from file:
     ../../Pseudo_potentials/Sn_PBE.upf
     MD5 check sum: 78e6386ae56e929f0568ae8bf606a80c
     Pseudo is Norm-conserving + core correction, Zval = 14.0
     Generated using ONCVPSP code by D. R. Hamann
     Using radial grid of 1628 points,  6 beta functions with: 
                l(1) =   0
                l(2) =   0
                l(3) =   1
                l(4) =   1
                l(5) =   2
                l(6) =   2

     PseudoPot. # 2 for O  read from file:
     ../../Pseudo_potentials/O_PBE.upf
     MD5 check sum: 3e3f909f7470e8921608ab6b1f57bbae
     Pseudo is Norm-conserving + core correction, Zval =  6.0
     Generated using ONCVPSP code by D. R. Hamann
     Using radial grid of  936 points,  5 beta functions with: 
                l(1) =   0
                l(2) =   0
                l(3) =   1
                l(4) =   1
                l(5) =   2

     Mode symmetry, C_1 (1)     point group:


     Atomic displacements:
     There are  18 irreducible representations

     Representation     1      1 modes -A  To be done

     Representation     2      1 modes -A  To be done

     Representation     3      1 modes -A  To be done

     Representation     4      1 modes -A  To be done

     Representation     5      1 modes -A  To be done

     Representation     6      1 modes -A  To be done

     Representation     7      1 modes -A  To be done

     Representation     8      1 modes -A  To be done

     Representation     9      1 modes -A  To be done

     Representation    10      1 modes -A  To be done

     Representation    11      1 modes -A  To be done

     Representation    12      1 modes -A  To be done

     Representation    13      1 modes -A  To be done

     Representation    14      1 modes -A  To be done

     Representation    15      1 modes -A  To be done

     Representation    16      1 modes -A  To be done

     Representation    17      1 modes -A  To be done

     Representation    18      1 modes -A  To be done



     Alpha used in Ewald sum =   2.7000
     PHONON       :     1d    7h25m CPU        2d   11h28m WALL



     Representation #  1 mode #   1

     Self-consistent Calculation

      iter #   1 total cpu time :215128.9 secs   av.it.:   8.1
      thresh= 1.000E-02 alpha_mix =  0.700 |ddv_scf|^2 =  5.242E-06

      iter #   2 total cpu time :216765.7 secs   av.it.:  14.3
      thresh= 2.289E-04 alpha_mix =  0.700 |ddv_scf|^2 =  1.037E-05

      iter #   3 total cpu time :218205.2 secs   av.it.:  12.6
      thresh= 3.220E-04 alpha_mix =  0.700 |ddv_scf|^2 =  2.379E-07

      iter #   4 total cpu time :219898.5 secs   av.it.:  13.8
      thresh= 4.878E-05 alpha_mix =  0.700 |ddv_scf|^2 =  2.253E-08

      iter #   5 total cpu time :221134.2 secs   av.it.:  13.4
      thresh= 1.501E-05 alpha_mix =  0.700 |ddv_scf|^2 =  1.105E-09

      iter #   6 total cpu time :222619.2 secs   av.it.:  13.8
      thresh= 3.323E-06 alpha_mix =  0.700 |ddv_scf|^2 =  9.680E-11

      iter #   7 total cpu time :224267.0 secs   av.it.:  14.2
      thresh= 9.839E-07 alpha_mix =  0.700 |ddv_scf|^2 =  1.420E-11

      iter #   8 total cpu time :225745.7 secs   av.it.:  14.0
      thresh= 3.769E-07 alpha_mix =  0.700 |ddv_scf|^2 =  6.843E-13

      iter #   9 total cpu time :227725.3 secs   av.it.:  14.8
      thresh= 8.272E-08 alpha_mix =  0.700 |ddv_scf|^2 =  2.236E-13

      iter #  10 total cpu time :229243.8 secs   av.it.:  14.3
      thresh= 4.729E-08 alpha_mix =  0.700 |ddv_scf|^2 =  1.366E-13

      iter #  11 total cpu time :230464.6 secs   av.it.:  13.7
      thresh= 3.696E-08 alpha_mix =  0.700 |ddv_scf|^2 =  1.500E-14

      iter #  12 total cpu time :232025.1 secs   av.it.:  13.7
      thresh= 1.225E-08 alpha_mix =  0.700 |ddv_scf|^2 =  8.736E-15

     End of self-consistent calculation

     Convergence has been achieved 


     Representation #  2 mode #   2

     Self-consistent Calculation

      iter #   1 total cpu time :233557.7 secs   av.it.:   9.1
      thresh= 1.000E-02 alpha_mix =  0.700 |ddv_scf|^2 =  2.321E-05

      iter #   2 total cpu time :235845.6 secs   av.it.:  14.3
      thresh= 4.817E-04 alpha_mix =  0.700 |ddv_scf|^2 =  5.587E-05

      iter #   3 total cpu time :237840.2 secs   av.it.:  12.8
      thresh= 7.474E-04 alpha_mix =  0.700 |ddv_scf|^2 =  8.228E-07

      iter #   4 total cpu time :240246.5 secs   av.it.:  13.8
      thresh= 9.071E-05 alpha_mix =  0.700 |ddv_scf|^2 =  2.122E-08

      iter #   5 total cpu time :242434.5 secs   av.it.:  13.9
      thresh= 1.457E-05 alpha_mix =  0.700 |ddv_scf|^2 =  5.190E-09

      iter #   6 total cpu time :244575.6 secs   av.it.:  13.7
      thresh= 7.204E-06 alpha_mix =  0.700 |ddv_scf|^2 =  4.827E-10

      iter #   7 total cpu time :246859.7 secs   av.it.:  14.0
      thresh= 2.197E-06 alpha_mix =  0.700 |ddv_scf|^2 =  3.264E-11

      iter #   8 total cpu time :249042.4 secs   av.it.:  13.9
      thresh= 5.713E-07 alpha_mix =  0.700 |ddv_scf|^2 =  3.696E-12

      iter #   9 total cpu time :251612.9 secs   av.it.:  14.4
      thresh= 1.922E-07 alpha_mix =  0.700 |ddv_scf|^2 =  1.414E-12

      iter #  10 total cpu time :253629.1 secs   av.it.:  14.3
      thresh= 1.189E-07 alpha_mix =  0.700 |ddv_scf|^2 =  4.256E-13

      iter #  11 total cpu time :255577.0 secs   av.it.:  14.0
      thresh= 6.524E-08 alpha_mix =  0.700 |ddv_scf|^2 =  7.949E-14

      iter #  12 total cpu time :257289.9 secs   av.it.:  13.3
      thresh= 2.819E-08 alpha_mix =  0.700 |ddv_scf|^2 =  7.429E-15

     End of self-consistent calculation

     Convergence has been achieved 


     Representation #  3 mode #   3

     Self-consistent Calculation

      iter #   1 total cpu time :258364.6 secs   av.it.:   8.0
      thresh= 1.000E-02 alpha_mix =  0.700 |ddv_scf|^2 =  2.740E-06

      iter #   2 total cpu time :260239.8 secs   av.it.:  14.5
      thresh= 1.655E-04 alpha_mix =  0.700 |ddv_scf|^2 =  3.086E-06

      iter #   3 total cpu time :261947.7 secs   av.it.:  13.3
      thresh= 1.757E-04 alpha_mix =  0.700 |ddv_scf|^2 =  2.366E-07

      iter #   4 total cpu time :263793.2 secs   av.it.:  13.6
      thresh= 4.864E-05 alpha_mix =  0.700 |ddv_scf|^2 =  1.256E-08

      iter #   5 total cpu time :265615.4 secs   av.it.:  13.7
      thresh= 1.121E-05 alpha_mix =  0.700 |ddv_scf|^2 =  7.257E-10

      iter #   6 total cpu time :267568.0 secs   av.it.:  13.8
      thresh= 2.694E-06 alpha_mix =  0.700 |ddv_scf|^2 =  7.437E-11

      iter #   7 total cpu time :269688.2 secs   av.it.:  14.1
      thresh= 8.624E-07 alpha_mix =  0.700 |ddv_scf|^2 =  1.330E-11

      iter #   8 total cpu time :271875.0 secs   av.it.:  14.0
      thresh= 3.647E-07 alpha_mix =  0.700 |ddv_scf|^2 =  1.765E-12

      iter #   9 total cpu time :274050.2 secs   av.it.:  14.3
      thresh= 1.328E-07 alpha_mix =  0.700 |ddv_scf|^2 =  4.984E-13

      iter #  10 total cpu time :276184.6 secs   av.it.:  14.3
      thresh= 7.060E-08 alpha_mix =  0.700 |ddv_scf|^2 =  1.434E-13

      iter #  11 total cpu time :278303.7 secs   av.it.:  14.2
      thresh= 3.787E-08 alpha_mix =  0.700 |ddv_scf|^2 =  3.721E-14

      iter #  12 total cpu time :280418.9 secs   av.it.:  13.9
      thresh= 1.929E-08 alpha_mix =  0.700 |ddv_scf|^2 =  1.846E-14

      iter #  13 total cpu time :282647.9 secs   av.it.:  13.8
      thresh= 1.359E-08 alpha_mix =  0.700 |ddv_scf|^2 =  5.891E-15

     End of self-consistent calculation

     Convergence has been achieved 


     Representation #  4 mode #   4

     Self-consistent Calculation

      iter #   1 total cpu time :284014.0 secs   av.it.:   7.9
      thresh= 1.000E-02 alpha_mix =  0.700 |ddv_scf|^2 =  2.293E-06

      iter #   2 total cpu time :286185.6 secs   av.it.:  14.6
      thresh= 1.514E-04 alpha_mix =  0.700 |ddv_scf|^2 =  2.755E-06

      iter #   3 total cpu time :288258.1 secs   av.it.:  13.1
      thresh= 1.660E-04 alpha_mix =  0.700 |ddv_scf|^2 =  2.301E-07

      iter #   4 total cpu time :290311.4 secs   av.it.:  13.5
      thresh= 4.797E-05 alpha_mix =  0.700 |ddv_scf|^2 =  1.265E-08

      iter #   5 total cpu time :292473.9 secs   av.it.:  13.8
      thresh= 1.125E-05 alpha_mix =  0.700 |ddv_scf|^2 =  5.775E-10

      iter #   6 total cpu time :294587.1 secs   av.it.:  14.0
      thresh= 2.403E-06 alpha_mix =  0.700 |ddv_scf|^2 =  8.595E-11

      iter #   7 total cpu time :296782.1 secs   av.it.:  14.1
      thresh= 9.271E-07 alpha_mix =  0.700 |ddv_scf|^2 =  1.504E-11

      iter #   8 total cpu time :299012.6 secs   av.it.:  14.0
      thresh= 3.878E-07 alpha_mix =  0.700 |ddv_scf|^2 =  1.020E-12

      iter #   9 total cpu time :301164.9 secs   av.it.:  14.7
      thresh= 1.010E-07 alpha_mix =  0.700 |ddv_scf|^2 =  5.249E-13

      iter #  10 total cpu time :303340.6 secs   av.it.:  14.2
      thresh= 7.245E-08 alpha_mix =  0.700 |ddv_scf|^2 =  1.428E-13

      iter #  11 total cpu time :305560.0 secs   av.it.:  14.3
      thresh= 3.779E-08 alpha_mix =  0.700 |ddv_scf|^2 =  5.250E-14

      iter #  12 total cpu time :307754.9 secs   av.it.:  13.6
      thresh= 2.291E-08 alpha_mix =  0.700 |ddv_scf|^2 =  1.772E-14

      iter #  13 total cpu time :309949.5 secs   av.it.:  13.7
      thresh= 1.331E-08 alpha_mix =  0.700 |ddv_scf|^2 =  3.535E-15

     End of self-consistent calculation

     Convergence has been achieved 


     Representation #  5 mode #   5

     Self-consistent Calculation

      iter #   1 total cpu time :311475.8 secs   av.it.:   9.1
      thresh= 1.000E-02 alpha_mix =  0.700 |ddv_scf|^2 =  1.033E-05

      iter #   2 total cpu time :313775.8 secs   av.it.:  14.7
      thresh= 3.214E-04 alpha_mix =  0.700 |ddv_scf|^2 =  1.787E-05

      iter #   3 total cpu time :315839.7 secs   av.it.:  13.3
      thresh= 4.228E-04 alpha_mix =  0.700 |ddv_scf|^2 =  7.730E-07

      iter #   4 total cpu time :318086.8 secs   av.it.:  13.8
      thresh= 8.792E-05 alpha_mix =  0.700 |ddv_scf|^2 =  7.750E-09

      iter #   5 total cpu time :320248.5 secs   av.it.:  14.4
      thresh= 8.803E-06 alpha_mix =  0.700 |ddv_scf|^2 =  5.257E-09

      iter #   6 total cpu time :322328.2 secs   av.it.:  13.5
      thresh= 7.250E-06 alpha_mix =  0.700 |ddv_scf|^2 =  1.943E-10

      iter #   7 total cpu time :324652.7 secs   av.it.:  14.5
      thresh= 1.394E-06 alpha_mix =  0.700 |ddv_scf|^2 =  2.484E-11

      iter #   8 total cpu time :326861.4 secs   av.it.:  14.1
      thresh= 4.984E-07 alpha_mix =  0.700 |ddv_scf|^2 =  4.981E-12

      iter #   9 total cpu time :329042.8 secs   av.it.:  14.2
      thresh= 2.232E-07 alpha_mix =  0.700 |ddv_scf|^2 =  1.947E-12

      iter #  10 total cpu time :331189.2 secs   av.it.:  14.0
      thresh= 1.395E-07 alpha_mix =  0.700 |ddv_scf|^2 =  3.970E-13

      iter #  11 total cpu time :333433.5 secs   av.it.:  14.2
      thresh= 6.301E-08 alpha_mix =  0.700 |ddv_scf|^2 =  2.245E-13

      iter #  12 total cpu time :335591.8 secs   av.it.:  13.2
      thresh= 4.738E-08 alpha_mix =  0.700 |ddv_scf|^2 =  9.477E-15

     End of self-consistent calculation

     Convergence has been achieved 


     Representation #  6 mode #   6

     Self-consistent Calculation

      iter #   1 total cpu time :336950.0 secs   av.it.:   7.8
      thresh= 1.000E-02 alpha_mix =  0.700 |ddv_scf|^2 =  2.594E-06

      iter #   2 total cpu time :339142.3 secs   av.it.:  14.4
      thresh= 1.611E-04 alpha_mix =  0.700 |ddv_scf|^2 =  4.037E-06

      iter #   3 total cpu time :341156.1 secs   av.it.:  12.8
      thresh= 2.009E-04 alpha_mix =  0.700 |ddv_scf|^2 =  1.925E-07

      iter #   4 total cpu time :343292.5 secs   av.it.:  13.6
      thresh= 4.387E-05 alpha_mix =  0.700 |ddv_scf|^2 =  1.718E-08

      iter #   5 total cpu time :345338.9 secs   av.it.:  13.6
      thresh= 1.311E-05 alpha_mix =  0.700 |ddv_scf|^2 =  6.039E-10
