
     Program PWSCF v.6.2.2 starts on 24May2018 at 14:50: 4 

     This program is part of the open-source Quantum ESPRESSO suite
     for quantum simulation of materials; please cite
         "P. Giannozzi et al., J. Phys.:Condens. Matter 21 395502 (2009);
         "P. Giannozzi et al., J. Phys.:Condens. Matter 29 465901 (2017);
          URL http://www.quantum-espresso.org", 
     in publications or presentations arising from this work. More details at
     http://www.quantum-espresso.org/quote

     Parallel version (MPI), running on     4 processors

     MPI processes distributed on     2 nodes
     R & G space division:  proc/nbgrp/npool/nimage =       4
     Waiting for input...
     Reading input from standard input
Warning: card  &IONS ignored
Warning: card  / ignored
Warning: card  &CELL ignored
Warning: card  / ignored

     Current dimensions of program PWSCF are:
     Max number of different atomic species (ntypx) = 10
     Max number of k-points (npk) =  40000
     Max angular momentum in pseudopotentials (lmaxx) =  3

     Subspace diagonalization in iterative solution of the eigenvalue problem:
     a serial algorithm will be used

 
     Parallelization info
     --------------------
     sticks:   dense  smooth     PW     G-vecs:    dense   smooth      PW
     Min         529     529    153                12368    12368    1943
     Max         531     531    154                12369    12369    1945
     Sum        2121    2121    613                49475    49475    7775
 


     bravais-lattice index     =            6
     lattice parameter (alat)  =       9.1336  a.u.
     unit-cell volume          =     511.8655 (a.u.)^3
     number of atoms/cell      =            6
     number of atomic types    =            2
     number of electrons       =        52.01
     number of Kohn-Sham states=           31
     kinetic-energy cutoff     =      80.0000  Ry
     charge density cutoff     =     320.0000  Ry
     convergence threshold     =      1.0E-20
     mixing beta               =       0.7000
     number of iterations used =            8  plain     mixing
     Exchange-correlation      = PBE ( 1  4  3  4 0 0)

     celldm(1)=   9.133580  celldm(2)=   0.000000  celldm(3)=   0.671789
     celldm(4)=   0.000000  celldm(5)=   0.000000  celldm(6)=   0.000000

     crystal axes: (cart. coord. in units of alat)
               a(1) = (   1.000000   0.000000   0.000000 )  
               a(2) = (   0.000000   1.000000   0.000000 )  
               a(3) = (   0.000000   0.000000   0.671789 )  

     reciprocal axes: (cart. coord. in units 2 pi/alat)
               b(1) = (  1.000000  0.000000  0.000000 )  
               b(2) = (  0.000000  1.000000  0.000000 )  
               b(3) = (  0.000000  0.000000  1.488563 )  


     PseudoPot. # 1 for Sn read from file:
     ../../Pseudo_potentials/Sn_PBE.upf
     MD5 check sum: 78e6386ae56e929f0568ae8bf606a80c
     Pseudo is Norm-conserving + core correction, Zval = 14.0
     Generated using ONCVPSP code by D. R. Hamann
     Using radial grid of 1628 points,  6 beta functions with: 
                l(1) =   0
                l(2) =   0
                l(3) =   1
                l(4) =   1
                l(5) =   2
                l(6) =   2

     PseudoPot. # 2 for O  read from file:
     ../../Pseudo_potentials/O_PBE.upf
     MD5 check sum: 3e3f909f7470e8921608ab6b1f57bbae
     Pseudo is Norm-conserving + core correction, Zval =  6.0
     Generated using ONCVPSP code by D. R. Hamann
     Using radial grid of  936 points,  5 beta functions with: 
                l(1) =   0
                l(2) =   0
                l(3) =   1
                l(4) =   1
                l(5) =   2

     atomic species   valence    mass     pseudopotential
        Sn            14.00   118.71000     Sn( 1.00)
        O              6.00    15.99900     O ( 1.00)

      4 Sym. Ops. (no inversion) found



   Cartesian axes

     site n.     atom                  positions (alat units)
         1           Sn  tau(   1) = (  -0.0003306  -0.0003306   0.0000000  )
         2           Sn  tau(   2) = (   0.4996695   0.4996695   0.3358943  )
         3           O   tau(   3) = (   0.8063619   0.1929648   0.3358943  )
         4           O   tau(   4) = (   0.1929648   0.8063619   0.3358943  )
         5           O   tau(   5) = (   0.3063658   0.3063658   0.0000000  )
         6           O   tau(   6) = (   0.6929687   0.6929687   0.0000000  )

     number of k points=    52  Methfessel-Paxton smearing, width (Ry)=  0.0100
                       cart. coord. in units 2pi/alat
        k(    1) = (   0.0000000   0.0000000   0.0000000), wk =   0.0092593
        k(    2) = (   0.0000000   0.0000000   0.2480939), wk =   0.0185185
        k(    3) = (   0.0000000   0.0000000   0.4961878), wk =   0.0185185
        k(    4) = (   0.0000000   0.0000000  -0.7442817), wk =   0.0092593
        k(    5) = (   0.0000000   0.1666667   0.0000000), wk =   0.0370370
        k(    6) = (   0.0000000   0.1666667   0.2480939), wk =   0.0740741
        k(    7) = (   0.0000000   0.1666667   0.4961878), wk =   0.0740741
        k(    8) = (   0.0000000   0.1666667  -0.7442817), wk =   0.0370370
        k(    9) = (   0.0000000   0.3333333   0.0000000), wk =   0.0370370
        k(   10) = (   0.0000000   0.3333333   0.2480939), wk =   0.0740741
        k(   11) = (   0.0000000   0.3333333   0.4961878), wk =   0.0740741
        k(   12) = (   0.0000000   0.3333333  -0.7442817), wk =   0.0370370
        k(   13) = (   0.0000000  -0.5000000   0.0000000), wk =   0.0185185
        k(   14) = (   0.0000000  -0.5000000   0.2480939), wk =   0.0370370
        k(   15) = (   0.0000000  -0.5000000   0.4961878), wk =   0.0370370
        k(   16) = (   0.0000000  -0.5000000  -0.7442817), wk =   0.0185185
        k(   17) = (   0.1666667   0.1666667   0.0000000), wk =   0.0185185
        k(   18) = (   0.1666667   0.1666667   0.2480939), wk =   0.0370370
        k(   19) = (   0.1666667   0.1666667   0.4961878), wk =   0.0370370
        k(   20) = (   0.1666667   0.1666667  -0.7442817), wk =   0.0185185
        k(   21) = (   0.1666667   0.3333333   0.0000000), wk =   0.0370370
        k(   22) = (   0.1666667   0.3333333   0.2480939), wk =   0.0740741
        k(   23) = (   0.1666667   0.3333333   0.4961878), wk =   0.0740741
        k(   24) = (   0.1666667   0.3333333  -0.7442817), wk =   0.0370370
        k(   25) = (   0.1666667  -0.5000000   0.0000000), wk =   0.0370370
        k(   26) = (   0.1666667  -0.5000000   0.2480939), wk =   0.0740741
        k(   27) = (   0.1666667  -0.5000000   0.4961878), wk =   0.0740741
        k(   28) = (   0.1666667  -0.5000000  -0.7442817), wk =   0.0370370
        k(   29) = (   0.3333333   0.3333333   0.0000000), wk =   0.0185185
        k(   30) = (   0.3333333   0.3333333   0.2480939), wk =   0.0370370
        k(   31) = (   0.3333333   0.3333333   0.4961878), wk =   0.0370370
        k(   32) = (   0.3333333   0.3333333  -0.7442817), wk =   0.0185185
        k(   33) = (   0.3333333  -0.5000000   0.0000000), wk =   0.0370370
        k(   34) = (   0.3333333  -0.5000000   0.2480939), wk =   0.0740741
        k(   35) = (   0.3333333  -0.5000000   0.4961878), wk =   0.0740741
        k(   36) = (   0.3333333  -0.5000000  -0.7442817), wk =   0.0370370
        k(   37) = (  -0.5000000  -0.5000000   0.0000000), wk =   0.0092593
        k(   38) = (  -0.5000000  -0.5000000   0.2480939), wk =   0.0185185
        k(   39) = (  -0.5000000  -0.5000000   0.4961878), wk =   0.0185185
        k(   40) = (  -0.5000000  -0.5000000  -0.7442817), wk =   0.0092593
        k(   41) = (   0.1666667  -0.1666667   0.0000000), wk =   0.0185185
        k(   42) = (   0.1666667  -0.1666667   0.2480939), wk =   0.0370370
        k(   43) = (   0.1666667  -0.1666667   0.4961878), wk =   0.0370370
        k(   44) = (   0.1666667  -0.1666667  -0.7442817), wk =   0.0185185
        k(   45) = (   0.3333333  -0.1666667   0.0000000), wk =   0.0370370
        k(   46) = (   0.3333333  -0.1666667   0.2480939), wk =   0.0740741
        k(   47) = (   0.3333333  -0.1666667   0.4961878), wk =   0.0740741
        k(   48) = (   0.3333333  -0.1666667  -0.7442817), wk =   0.0370370
        k(   49) = (   0.3333333  -0.3333333   0.0000000), wk =   0.0185185
        k(   50) = (   0.3333333  -0.3333333   0.2480939), wk =   0.0370370
        k(   51) = (   0.3333333  -0.3333333   0.4961878), wk =   0.0370370
        k(   52) = (   0.3333333  -0.3333333  -0.7442817), wk =   0.0185185

     Dense  grid:    49475 G-vectors     FFT dimensions: (  54,  54,  36)

     Estimated max dynamical RAM per process >      58.92 MB

     Estimated total dynamical RAM >     235.70 MB

     Initial potential from superposition of free atoms

     starting charge   51.99690, renormalised to   52.01000
     Starting wfc are   34 randomized atomic wfcs

     total cpu time spent up to now is       96.0 secs

     Self-consistent Calculation

     iteration #  1     ecut=    80.00 Ry     beta= 0.70
     Davidson diagonalization with overlap
     ethr =  1.00E-02,  avg # of iterations =  2.6

     total cpu time spent up to now is      357.1 secs

     total energy              =    -446.85558218 Ry
     Harris-Foulkes estimate   =    -448.02779079 Ry
     estimated scf accuracy    <       1.59032459 Ry

     iteration #  2     ecut=    80.00 Ry     beta= 0.70
     Davidson diagonalization with overlap
     ethr =  3.06E-03,  avg # of iterations =  2.4

     total cpu time spent up to now is      635.6 secs

     total energy              =    -447.25418341 Ry
     Harris-Foulkes estimate   =    -448.05524637 Ry
     estimated scf accuracy    <       1.65566982 Ry

     iteration #  3     ecut=    80.00 Ry     beta= 0.70
     Davidson diagonalization with overlap
     ethr =  3.06E-03,  avg # of iterations =  2.0

     total cpu time spent up to now is      916.8 secs

     total energy              =    -447.58151767 Ry
     Harris-Foulkes estimate   =    -447.58228761 Ry
     estimated scf accuracy    <       0.00624746 Ry

     iteration #  4     ecut=    80.00 Ry     beta= 0.70
     Davidson diagonalization with overlap
     ethr =  1.20E-05,  avg # of iterations =  3.7

     total cpu time spent up to now is     1295.8 secs

     total energy              =    -447.58312399 Ry
     Harris-Foulkes estimate   =    -447.58330361 Ry
     estimated scf accuracy    <       0.00036184 Ry

     iteration #  5     ecut=    80.00 Ry     beta= 0.70
     Davidson diagonalization with overlap
     ethr =  6.96E-07,  avg # of iterations =  2.1

     total cpu time spent up to now is     1538.0 secs

     total energy              =    -447.58314194 Ry
     Harris-Foulkes estimate   =    -447.58314604 Ry
     estimated scf accuracy    <       0.00001610 Ry

     iteration #  6     ecut=    80.00 Ry     beta= 0.70
     Davidson diagonalization with overlap
     ethr =  3.10E-08,  avg # of iterations =  2.0

     total cpu time spent up to now is     1824.9 secs

     total energy              =    -447.58314706 Ry
     Harris-Foulkes estimate   =    -447.58314907 Ry
     estimated scf accuracy    <       0.00000520 Ry

     iteration #  7     ecut=    80.00 Ry     beta= 0.70
     Davidson diagonalization with overlap
     ethr =  1.00E-08,  avg # of iterations =  2.1

     total cpu time spent up to now is     2082.9 secs

     total energy              =    -447.58314738 Ry
     Harris-Foulkes estimate   =    -447.58314788 Ry
     estimated scf accuracy    <       0.00000103 Ry

     iteration #  8     ecut=    80.00 Ry     beta= 0.70
     Davidson diagonalization with overlap
     ethr =  1.97E-09,  avg # of iterations =  2.0

     total cpu time spent up to now is     2419.9 secs

     total energy              =    -447.58314761 Ry
     Harris-Foulkes estimate   =    -447.58314761 Ry
     estimated scf accuracy    <       0.00000004 Ry

     iteration #  9     ecut=    80.00 Ry     beta= 0.70
     Davidson diagonalization with overlap
     ethr =  8.19E-11,  avg # of iterations =  2.1

     total cpu time spent up to now is     2708.6 secs

     total energy              =    -447.58314762 Ry
     Harris-Foulkes estimate   =    -447.58314762 Ry
     estimated scf accuracy    <          6.8E-09 Ry

     iteration # 10     ecut=    80.00 Ry     beta= 0.70
     Davidson diagonalization with overlap
     ethr =  1.31E-11,  avg # of iterations =  2.0

     total cpu time spent up to now is     2995.0 secs

     total energy              =    -447.58314762 Ry
     Harris-Foulkes estimate   =    -447.58314762 Ry
     estimated scf accuracy    <          2.4E-09 Ry

     iteration # 11     ecut=    80.00 Ry     beta= 0.70
     Davidson diagonalization with overlap
     ethr =  4.62E-12,  avg # of iterations =  2.0

     total cpu time spent up to now is     3296.6 secs

     total energy              =    -447.58314762 Ry
     Harris-Foulkes estimate   =    -447.58314762 Ry
     estimated scf accuracy    <          6.0E-11 Ry

     iteration # 12     ecut=    80.00 Ry     beta= 0.70
     Davidson diagonalization with overlap
     ethr =  1.16E-13,  avg # of iterations =  2.0

     total cpu time spent up to now is     3593.2 secs

     total energy              =    -447.58314762 Ry
     Harris-Foulkes estimate   =    -447.58314762 Ry
     estimated scf accuracy    <          8.5E-12 Ry

     iteration # 13     ecut=    80.00 Ry     beta= 0.70
     Davidson diagonalization with overlap
     ethr =  1.00E-13,  avg # of iterations =  1.0

     total cpu time spent up to now is     3894.0 secs

     total energy              =    -447.58314762 Ry
     Harris-Foulkes estimate   =    -447.58314762 Ry
     estimated scf accuracy    <          4.3E-13 Ry

     iteration # 14     ecut=    80.00 Ry     beta= 0.70
     Davidson diagonalization with overlap
     ethr =  1.00E-13,  avg # of iterations =  1.0

     total cpu time spent up to now is     4165.7 secs

     total energy              =    -447.58314762 Ry
     Harris-Foulkes estimate   =    -447.58314762 Ry
     estimated scf accuracy    <          2.3E-14 Ry

     iteration # 15     ecut=    80.00 Ry     beta= 0.70
     Davidson diagonalization with overlap
     ethr =  1.00E-13,  avg # of iterations =  1.0

     total cpu time spent up to now is     4424.9 secs

     total energy              =    -447.58314762 Ry
     Harris-Foulkes estimate   =    -447.58314762 Ry
     estimated scf accuracy    <          4.2E-15 Ry

     iteration # 16     ecut=    80.00 Ry     beta= 0.70
     Davidson diagonalization with overlap
     ethr =  1.00E-13,  avg # of iterations =  1.0

     total cpu time spent up to now is     4696.2 secs

     total energy              =    -447.58314762 Ry
     Harris-Foulkes estimate   =    -447.58314762 Ry
     estimated scf accuracy    <          4.4E-16 Ry

     iteration # 17     ecut=    80.00 Ry     beta= 0.70
     Davidson diagonalization with overlap
     ethr =  1.00E-13,  avg # of iterations =  1.0

     total cpu time spent up to now is     4952.3 secs

     total energy              =    -447.58314762 Ry
     Harris-Foulkes estimate   =    -447.58314762 Ry
     estimated scf accuracy    <          7.4E-17 Ry

     iteration # 18     ecut=    80.00 Ry     beta= 0.70
     Davidson diagonalization with overlap
     ethr =  1.00E-13,  avg # of iterations =  1.0

     total cpu time spent up to now is     5193.0 secs

     total energy              =    -447.58314762 Ry
     Harris-Foulkes estimate   =    -447.58314762 Ry
     estimated scf accuracy    <          1.1E-17 Ry

     iteration # 19     ecut=    80.00 Ry     beta= 0.70
     Davidson diagonalization with overlap
     ethr =  1.00E-13,  avg # of iterations =  1.0

     total cpu time spent up to now is     5444.3 secs

     total energy              =    -447.58314762 Ry
     Harris-Foulkes estimate   =    -447.58314762 Ry
     estimated scf accuracy    <          1.6E-18 Ry

     iteration # 20     ecut=    80.00 Ry     beta= 0.70
     Davidson diagonalization with overlap
     ethr =  1.00E-13,  avg # of iterations =  1.0

     total cpu time spent up to now is     5674.2 secs

     total energy              =    -447.58314762 Ry
     Harris-Foulkes estimate   =    -447.58314762 Ry
     estimated scf accuracy    <          9.2E-20 Ry

     iteration # 21     ecut=    80.00 Ry     beta= 0.70
     Davidson diagonalization with overlap
     ethr =  1.00E-13,  avg # of iterations =  1.0

     total cpu time spent up to now is     5887.3 secs

     total energy              =    -447.58314762 Ry
     Harris-Foulkes estimate   =    -447.58314762 Ry
     estimated scf accuracy    <          5.2E-20 Ry

     iteration # 22     ecut=    80.00 Ry     beta= 0.70
     Davidson diagonalization with overlap
     ethr =  1.00E-13,  avg # of iterations =  1.0

     total cpu time spent up to now is     6039.3 secs

     End of self-consistent calculation

          k = 0.0000 0.0000 0.0000 (  6209 PWs)   bands (ev):

   -12.1465 -11.5254 -11.3263 -11.2986 -11.2986 -11.2180 -11.1972 -11.1307
   -11.1194 -11.1194  -9.6788  -7.9617  -7.9617  -6.4985   0.9618   5.0425
     5.0425   5.1441   6.0417   6.9061   6.9552   7.6372   7.6372   8.2090
     8.2090   8.9154   9.5190  14.5128  14.9691  14.9691  18.9835

          k = 0.0000 0.0000 0.2481 (  6185 PWs)   bands (ev):

   -12.0363 -11.4846 -11.4846 -11.4184 -11.2873 -11.2332 -11.1889 -11.1455
   -11.1455 -11.1315  -9.5225  -7.6326  -7.6326  -6.6792   0.9673   4.9296
     5.2684   5.2684   5.3979   6.2167   6.6634   6.8005   6.8005   8.2067
     8.2067   8.7138  11.0637  14.9456  16.0007  16.0007  17.7798

          k = 0.0000 0.0000 0.4962 (  6126 PWs)   bands (ev):

   -11.7976 -11.7976 -11.7780 -11.3596 -11.1939 -11.1881 -11.1881 -11.1772
   -11.1692 -11.1361  -8.9967  -7.2499  -7.0191  -7.0191   1.1412   3.3688
     4.8082   5.3613   5.3613   5.9731   5.9956   5.9956   6.7106   7.9823
     7.9823   8.1615  13.0452  15.1567  17.4179  17.9080  17.9080

          k = 0.0000 0.0000-0.7443 (  6146 PWs)   bands (ev):

   -11.9323 -11.9323 -11.5208 -11.5208 -11.2083 -11.2083 -11.1489 -11.1489
   -11.1227 -11.1227  -8.1328  -8.1328  -6.7210  -6.7210   1.8787   1.8787
     4.8618   4.8618   5.2153   5.2153   6.3366   6.3366   7.4201   7.4201
     7.7484   7.7484  14.4188  14.4188  18.2684  18.2684  19.1993

          k = 0.0000 0.1667 0.0000 (  6206 PWs)   bands (ev):

   -12.1105 -11.5635 -11.3250 -11.2970 -11.2969 -11.2465 -11.1921 -11.1345
   -11.1213 -11.1213  -9.5949  -8.1291  -7.8311  -6.5481   1.1446   4.5269
     5.1633   5.2414   6.1853   6.7822   7.1161   7.6198   7.6469   7.6704
     8.2225   8.7878  10.2713  14.2705  15.0920  15.1970  19.2591

          k = 0.0000 0.1667 0.2481 (  6178 PWs)   bands (ev):

   -12.0095 -11.5531 -11.4781 -11.4064 -11.2830 -11.2320 -11.1848 -11.1457
   -11.1442 -11.1338  -9.4382  -7.8431  -7.5294  -6.6610   1.1555   4.6251
     4.6443   5.2850   5.7452   6.2367   6.6569   6.9439   7.1210   8.0592
     8.1939   8.6606  11.3964  14.7661  16.0881  16.1318  17.9108

          k = 0.0000 0.1667 0.4962 (  6167 PWs)   bands (ev):

   -11.9007 -11.8433 -11.6420 -11.3302 -11.2032 -11.1943 -11.1793 -11.1721
   -11.1647 -11.1372  -8.9511  -7.5823  -6.9588  -6.8063   1.2957   3.2581
     4.3581   4.9803   5.3730   5.4436   6.4064   6.7931   6.9275   7.9470
     8.0225   8.1956  13.1757  15.0919  17.2848  17.7292  17.9985

          k = 0.0000 0.1667-0.7443 (  6160 PWs)   bands (ev):

   -11.9807 -11.9807 -11.4554 -11.4554 -11.2104 -11.2104 -11.1477 -11.1477
   -11.1199 -11.1199  -8.1876  -8.1876  -6.6762  -6.6762   1.9238   1.9238
     4.5202   4.5202   5.0097   5.0097   6.8383   6.8383   7.5091   7.5091
     7.7757   7.7757  14.4622  14.4622  17.6922  17.6922  19.2574

          k = 0.0000 0.3333 0.0000 (  6178 PWs)   bands (ev):

   -12.0071 -11.6842 -11.3208 -11.2936 -11.2935 -11.2891 -11.1787 -11.1454
   -11.1252 -11.1251  -9.3492  -8.5236  -7.4979  -6.7428   1.6808   3.5275
     5.5090   5.5175   6.3855   6.5689   6.7611   7.2926   7.6714   7.7021
     8.2584   8.5098  11.5109  13.6782  15.4286  15.5678  19.3047

          k = 0.0000 0.3333 0.2481 (  6181 PWs)   bands (ev):

   -11.9326 -11.6804 -11.4601 -11.4133 -11.2710 -11.2386 -11.1739 -11.1483
   -11.1452 -11.1382  -9.1839  -8.2960  -7.2682  -6.7332   1.7001   3.5689
     4.5027   4.9332   6.1912   6.5734   6.5780   7.2561   7.4489   7.7043
     8.1735   8.4712  12.2511  14.2055  16.3661  16.4316  18.1199

          k = 0.0000 0.3333 0.4962 (  6178 PWs)   bands (ev):

   -11.9636 -11.9218 -11.4898 -11.3112 -11.2111 -11.2045 -11.1703 -11.1650
   -11.1549 -11.1404  -8.7869  -8.0475  -6.8187  -6.6698   1.7336   2.9344
     3.8966   4.1301   5.3624   5.3702   7.1625   7.2032   7.3180   7.9208
     8.0388   8.2446  13.5940  14.8187  17.0718  17.2952  18.1912

          k = 0.0000 0.3333-0.7443 (  6176 PWs)   bands (ev):

   -12.0524 -12.0524 -11.3517 -11.3517 -11.2113 -11.2113 -11.1454 -11.1454
   -11.1142 -11.1142  -8.2915  -8.2915  -6.5939  -6.5939   2.0436   2.0436
     3.8803   3.8803   4.9280   4.9280   7.2362   7.2362   7.7680   7.7680
     7.9707   7.9707  14.5771  14.5771  16.8862  16.8862  19.3786

          k = 0.0000-0.5000 0.0000 (  6178 PWs)   bands (ev):

   -11.8525 -11.8525 -11.3112 -11.3112 -11.2918 -11.2918 -11.1615 -11.1615
   -11.1272 -11.1272  -8.9701  -8.9701  -7.0904  -7.0904   2.5134   2.5134
     5.9256   5.9256   6.0514   6.0515   7.0353   7.0353   7.6969   7.6969
     8.3267   8.3267  12.7229  12.7229  15.7036  15.7036  19.2687

          k = 0.0000-0.5000 0.2481 (  6184 PWs)   bands (ev):

   -11.8164 -11.8164 -11.4355 -11.4355 -11.2543 -11.2543 -11.1601 -11.1601
   -11.1426 -11.1426  -8.7815  -8.7815  -6.9615  -6.9615   2.5388   2.5388
     4.6223   4.6224   6.3925   6.3925   7.1930   7.1930   7.5091   7.5091
     8.2390   8.2390  13.2975  13.2975  16.6022  16.6022  18.3931

          k = 0.0000-0.5000 0.4962 (  6174 PWs)   bands (ev):

   -11.9695 -11.9695 -11.3667 -11.3667 -11.2121 -11.2121 -11.1640 -11.1640
   -11.1461 -11.1461  -8.4753  -8.4753  -6.6915  -6.6915   2.3597   2.3597
     3.7665   3.7665   5.3446   5.3447   7.3583   7.3584   7.7904   7.7904
     8.1145   8.1145  14.2436  14.2436  17.0234  17.0235  18.4878

          k = 0.0000-0.5000-0.7443 (  6168 PWs)   bands (ev):

   -12.0813 -12.0813 -11.3100 -11.3100 -11.2079 -11.2079 -11.1443 -11.1443
   -11.1111 -11.1111  -8.3413  -8.3413  -6.5556  -6.5556   2.1289   2.1289
     3.5908   3.5908   4.9037   4.9037   7.2569   7.2569   7.9316   7.9316
     8.1503   8.1503  14.6626  14.6626  16.5078  16.5078  19.4472

          k = 0.1667 0.1667 0.0000 (  6191 PWs)   bands (ev):

   -12.0819 -11.6045 -11.3232 -11.2991 -11.2933 -11.2644 -11.1876 -11.1377
   -11.1253 -11.1192  -9.5058  -8.0088  -7.9875  -6.6173   1.3343   4.3774
     5.0565   5.3304   6.3022   6.6610   7.1688   7.3364   7.6195   7.7008
     8.1817   8.6849  10.7743  14.0840  15.3000  15.3146  19.1738

          k = 0.1667 0.1667 0.2481 (  6178 PWs)   bands (ev):

   -11.9861 -11.5904 -11.4859 -11.4065 -11.2822 -11.2314 -11.1811 -11.1463
   -11.1444 -11.1360  -9.3471  -7.8029  -7.6562  -6.6760   1.3382   4.0190
     5.1392   5.3008   5.4715   6.1930   6.6813   6.9919   7.3672   7.9285
     8.1887   8.6257  11.6818  14.5827  16.2088  16.2515  17.9333

          k = 0.1667 0.1667 0.4962 (  6180 PWs)   bands (ev):

   -11.9505 -11.7999 -11.6524 -11.3107 -11.2081 -11.1911 -11.1838 -11.1667
   -11.1620 -11.1382  -8.8941  -7.6713  -7.0389  -6.6978   1.4008   3.0826
     4.0328   5.1229   5.1838   5.8760   5.9234   7.0797   7.2396   7.9760
     8.0176   8.2238  13.2510  14.9516  17.0085  17.9494  17.9708

          k = 0.1667 0.1667-0.7443 (  6184 PWs)   bands (ev):

   -12.0513 -11.9347 -11.5252 -11.3455 -11.2129 -11.2106 -11.1477 -11.1459
   -11.1199 -11.1160  -8.3077  -8.0963  -6.7386  -6.5869   1.6749   2.1781
     3.9822   4.5634   4.6525   5.7464   6.3430   7.4849   7.5967   7.6019
     7.7005   7.8573  14.1993  14.6664  16.7806  18.5353  18.8999

          k = 0.1667 0.3333 0.0000 (  6188 PWs)   bands (ev):

   -11.9979 -11.7204 -11.3179 -11.2977 -11.2920 -11.2918 -11.1758 -11.1469
   -11.1272 -11.1209  -9.2472  -8.3964  -7.6593  -6.8521   1.8784   3.6238
     5.3331   5.5817   6.3449   6.5620   6.6295   7.2985   7.6272   7.7004
     8.1900   8.4421  11.7859  13.6146  15.5807  15.6618  19.1069

          k = 0.1667 0.3333 0.2481 (  6178 PWs)   bands (ev):

   -11.9182 -11.6941 -11.4744 -11.4213 -11.2746 -11.2412 -11.1713 -11.1492
   -11.1455 -11.1401  -9.0793  -8.1874  -7.4285  -6.8089   1.8520   3.3742
     4.8481   4.9662   6.0328   6.2877   6.5858   7.2844   7.5670   7.6344
     8.1703   8.4749  12.4114  14.0760  16.4695  16.5130  18.0550

          k = 0.1667 0.3333 0.4962 (  6189 PWs)   bands (ev):

   -11.9738 -11.8653 -11.5500 -11.3252 -11.2119 -11.1991 -11.1756 -11.1637
   -11.1546 -11.1413  -8.7044  -7.9880  -6.9471  -6.6660   1.6903   2.6059
     3.9639   4.6837   5.1010   5.4881   6.7766   7.3799   7.5725   7.9089
     8.0488   8.2532  13.5097  14.5219  16.9339  17.6992  18.1989

          k = 0.1667 0.3333-0.7443 (  6192 PWs)   bands (ev):

   -12.0812 -11.9841 -11.4626 -11.3036 -11.2140 -11.2106 -11.1460 -11.1442
   -11.1155 -11.1131  -8.3419  -8.1355  -6.6994  -6.5539   1.6109   2.0952
     3.8020   4.3114   4.6023   5.4117   6.9517   7.5700   7.7215   7.8635
     7.8958   8.0376  14.0533  14.5064  16.4842  17.7740  19.2035

          k = 0.1667-0.5000 0.0000 (  6176 PWs)   bands (ev):

   -11.8683 -11.8683 -11.3087 -11.3087 -11.2941 -11.2941 -11.1607 -11.1607
   -11.1249 -11.1249  -8.8535  -8.8534  -7.2338  -7.2337   2.6920   2.6920
     5.8835   5.8836   5.9474   5.9474   7.0417   7.0417   7.6656   7.6657
     8.2613   8.2613  12.8177  12.8177  15.7929  15.7929  19.2532

          k = 0.1667-0.5000 0.2481 (  6180 PWs)   bands (ev):

   -11.8147 -11.8147 -11.4484 -11.4483 -11.2592 -11.2592 -11.1592 -11.1592
   -11.1434 -11.1434  -8.6681  -8.6681  -7.0896  -7.0896   2.5924   2.5924
     4.7677   4.7677   6.2588   6.2588   7.0310   7.0310   7.5866   7.5866
     8.2604   8.2604  13.2995  13.2995  16.6425  16.6425  18.4812

          k = 0.1667-0.5000 0.4962 (  6186 PWs)   bands (ev):

   -11.9425 -11.9425 -11.4162 -11.4162 -11.2078 -11.2078 -11.1669 -11.1669
   -11.1468 -11.1468  -8.3804  -8.3804  -6.7724  -6.7724   2.1070   2.1070
     4.2081   4.2081   5.2157   5.2157   7.4268   7.4268   7.7189   7.7189
     8.1367   8.1367  13.9694  13.9694  17.2403  17.2403  18.5269

          k = 0.1667-0.5000-0.7443 (  6176 PWs)   bands (ev):

   -12.0543 -12.0543 -11.3562 -11.3562 -11.2115 -11.2115 -11.1443 -11.1443
   -11.1130 -11.1130  -8.2599  -8.2599  -6.6051  -6.6051   1.7824   1.7824
     4.0181   4.0181   4.8850   4.8850   7.3911   7.3911   7.9786   7.9786
     8.0141   8.0141  14.1560  14.1560  16.9296  16.9296  19.4105

          k = 0.3333 0.3333 0.0000 (  6178 PWs)   bands (ev):

   -11.9644 -11.8066 -11.3113 -11.3001 -11.2979 -11.2943 -11.1682 -11.1515
   -11.1247 -11.1187  -8.9580  -8.0753  -8.0390  -7.1651   2.4136   3.6332
     5.1416   5.7574   6.0590   6.2112   6.8103   7.2495   7.5846   7.6571
     8.1152   8.2714  12.3925  13.4180  15.8449  15.8570  19.0501

          k = 0.3333 0.3333 0.2481 (  6192 PWs)   bands (ev):

   -11.8760 -11.7410 -11.4883 -11.4461 -11.2750 -11.2534 -11.1646 -11.1507
   -11.1464 -11.1430  -8.7863  -8.0074  -7.7035  -7.0536   2.2420   3.0714
     4.9924   5.3769   5.7709   6.1060   6.3878   7.1867   7.5095   7.8445
     8.1345   8.3980  12.8200  13.7550  16.6284  16.6649  18.2091

          k = 0.3333 0.3333 0.4962 (  6183 PWs)   bands (ev):

   -11.9445 -11.8041 -11.6203 -11.4044 -11.2071 -11.1914 -11.1825 -11.1663
   -11.1519 -11.1439  -8.4706  -7.9500  -7.0783  -6.7722   1.6670   2.1117
     4.5272   4.8371   4.8507   5.9906   6.2714   7.6531   7.6723   7.8360
     8.0944   8.2717  13.4155  13.9480  17.1530  17.8148  18.3219

          k = 0.3333 0.3333-0.7443 (  6202 PWs)   bands (ev):

   -12.0552 -11.9395 -11.5315 -11.3546 -11.2134 -11.2114 -11.1454 -11.1437
   -11.1170 -11.1143  -8.2446  -8.0219  -6.7737  -6.6092   1.3318   1.6610
     4.2870   4.3088   4.5416   6.3035   6.3747   7.7810   7.8257   7.8782
     7.9686   8.0712  13.5908  13.8459  16.8407  17.9932  19.0207

          k = 0.3333-0.5000 0.0000 (  6202 PWs)   bands (ev):

   -11.8983 -11.8983 -11.3043 -11.3043 -11.2985 -11.2985 -11.1591 -11.1591
   -11.1205 -11.1205  -8.5328  -8.5328  -7.6064  -7.6064   3.1145   3.1145
     5.4746   5.4747   5.9932   5.9933   7.0632   7.0632   7.6009   7.6010
     8.1353   8.1353  13.0039  13.0039  15.9600  15.9600  19.3034

          k = 0.3333-0.5000 0.2481 (  6190 PWs)   bands (ev):

   -11.8110 -11.8110 -11.4754 -11.4754 -11.2672 -11.2672 -11.1566 -11.1566
   -11.1451 -11.1451  -8.3671  -8.3671  -7.4201  -7.4201   2.7001   2.7001
     5.1398   5.1398   6.0404   6.0405   6.6048   6.6048   7.7875   7.7875
     8.2212   8.2212  13.3142  13.3142  16.7063  16.7064  18.8019

          k = 0.3333-0.5000 0.4962 (  6196 PWs)   bands (ev):

   -11.8693 -11.8693 -11.5321 -11.5321 -11.1983 -11.1983 -11.1746 -11.1746
   -11.1476 -11.1476  -8.1590  -8.1590  -6.9681  -6.9681   1.7905   1.7905
     4.7351   4.7351   5.3347   5.3348   7.0301   7.0301   7.8924   7.8924
     8.1841   8.1841  13.5375  13.5375  17.5199  17.5199  18.7221

          k = 0.3333-0.5000-0.7443 (  6212 PWs)   bands (ev):

   -11.9872 -11.9872 -11.4663 -11.4663 -11.2115 -11.2115 -11.1443 -11.1443
   -11.1167 -11.1167  -8.0833  -8.0833  -6.7208  -6.7208   1.3479   1.3479
     4.2156   4.2156   5.4644   5.4644   7.2316   7.2316   7.9318   7.9318
     8.0943   8.0943  13.4748  13.4748  17.4016  17.4016  19.3587

          k =-0.5000-0.5000 0.0000 (  6212 PWs)   bands (ev):

   -11.9126 -11.9126 -11.3023 -11.3023 -11.3006 -11.3006 -11.1583 -11.1583
   -11.1184 -11.1184  -8.0998  -8.0998  -8.0648  -8.0648   3.3888   3.3888
     5.2045   5.2045   6.0176   6.0176   7.0781   7.0781   7.5673   7.5673
     8.0735   8.0735  13.0964  13.0964  16.0342  16.0342  19.3787

          k =-0.5000-0.5000 0.2481 (  6208 PWs)   bands (ev):

   -11.8090 -11.8090 -11.4894 -11.4894 -11.2705 -11.2705 -11.1548 -11.1548
   -11.1461 -11.1461  -8.0750  -8.0750  -7.7271  -7.7271   2.7545   2.7545
     5.4082   5.4082   6.0802   6.0802   6.1717   6.1717   7.9795   7.9795
     8.0945   8.0945  13.3265  13.3265  16.7279  16.7279  19.1956

          k =-0.5000-0.5000 0.4962 (  6212 PWs)   bands (ev):

   -11.8061 -11.8061 -11.6156 -11.6156 -11.1896 -11.1896 -11.1825 -11.1825
   -11.1478 -11.1478  -8.0177  -8.0177  -7.0979  -7.0979   1.6737   1.6737
     4.7055   4.7055   6.0517   6.0517   6.3877   6.3877   8.0847   8.0847
     8.1371   8.1371  13.3603  13.3603  17.5955  17.5955  19.0646

          k =-0.5000-0.5000-0.7443 (  6216 PWs)   bands (ev):

   -11.9417 -11.9417 -11.5333 -11.5333 -11.2101 -11.2101 -11.1443 -11.1443
   -11.1186 -11.1186  -7.9840  -7.9840  -6.7910  -6.7910   1.1837   1.1837
     4.1613   4.1613   6.3969   6.3969   6.4792   6.4792   8.0139   8.0139
     8.1588   8.1588  13.2081  13.2081  17.5433  17.5433  19.4351

          k = 0.1667-0.1667 0.0000 (  6191 PWs)   bands (ev):

   -12.0819 -11.6045 -11.3232 -11.2991 -11.2933 -11.2644 -11.1876 -11.1377
   -11.1253 -11.1192  -9.5058  -8.0088  -7.9875  -6.6173   1.3343   4.3774
     5.0565   5.3304   6.3022   6.6610   7.1688   7.3364   7.6195   7.7008
     8.1817   8.6849  10.7743  14.0840  15.3000  15.3146  19.1738

          k = 0.1667-0.1667 0.2481 (  6178 PWs)   bands (ev):

   -11.9861 -11.5904 -11.4859 -11.4065 -11.2822 -11.2314 -11.1811 -11.1463
   -11.1444 -11.1360  -9.3471  -7.8029  -7.6562  -6.6760   1.3382   4.0190
     5.1392   5.3008   5.4715   6.1930   6.6813   6.9919   7.3672   7.9285
     8.1887   8.6257  11.6818  14.5827  16.2088  16.2515  17.9333

          k = 0.1667-0.1667 0.4962 (  6180 PWs)   bands (ev):

   -11.9505 -11.7999 -11.6524 -11.3107 -11.2081 -11.1911 -11.1838 -11.1667
   -11.1620 -11.1382  -8.8941  -7.6713  -7.0389  -6.6978   1.4008   3.0826
     4.0328   5.1229   5.1838   5.8760   5.9234   7.0797   7.2396   7.9760
     8.0176   8.2238  13.2510  14.9516  17.0085  17.9494  17.9708

          k = 0.1667-0.1667-0.7443 (  6184 PWs)   bands (ev):

   -12.0513 -11.9347 -11.5252 -11.3455 -11.2129 -11.2106 -11.1477 -11.1459
   -11.1199 -11.1160  -8.3077  -8.0963  -6.7386  -6.5869   1.6749   2.1781
     3.9822   4.5634   4.6525   5.7464   6.3430   7.4849   7.5967   7.6019
     7.7005   7.8573  14.1993  14.6664  16.7806  18.5353  18.8999

          k = 0.3333-0.1667 0.0000 (  6188 PWs)   bands (ev):

   -11.9979 -11.7204 -11.3179 -11.2977 -11.2920 -11.2918 -11.1758 -11.1469
   -11.1272 -11.1209  -9.2472  -8.3964  -7.6593  -6.8521   1.8784   3.6238
     5.3331   5.5817   6.3449   6.5620   6.6295   7.2985   7.6272   7.7004
     8.1900   8.4421  11.7859  13.6146  15.5807  15.6618  19.1069

          k = 0.3333-0.1667 0.2481 (  6178 PWs)   bands (ev):

   -11.9182 -11.6941 -11.4744 -11.4213 -11.2746 -11.2412 -11.1713 -11.1492
   -11.1455 -11.1401  -9.0793  -8.1874  -7.4285  -6.8089   1.8520   3.3742
     4.8481   4.9662   6.0328   6.2877   6.5858   7.2844   7.5670   7.6344
     8.1703   8.4749  12.4114  14.0760  16.4695  16.5130  18.0550

          k = 0.3333-0.1667 0.4962 (  6189 PWs)   bands (ev):

   -11.9738 -11.8653 -11.5500 -11.3252 -11.2119 -11.1991 -11.1756 -11.1637
   -11.1546 -11.1413  -8.7044  -7.9880  -6.9471  -6.6660   1.6903   2.6059
     3.9639   4.6837   5.1010   5.4881   6.7766   7.3799   7.5725   7.9089
     8.0488   8.2532  13.5097  14.5219  16.9339  17.6992  18.1989

          k = 0.3333-0.1667-0.7443 (  6192 PWs)   bands (ev):

   -12.0812 -11.9841 -11.4626 -11.3036 -11.2140 -11.2106 -11.1460 -11.1442
   -11.1155 -11.1131  -8.3419  -8.1355  -6.6994  -6.5539   1.6109   2.0952
     3.8020   4.3114   4.6023   5.4117   6.9517   7.5700   7.7215   7.8635
     7.8958   8.0376  14.0533  14.5064  16.4842  17.7740  19.2035

          k = 0.3333-0.3333 0.0000 (  6178 PWs)   bands (ev):

   -11.9644 -11.8066 -11.3113 -11.3001 -11.2979 -11.2943 -11.1682 -11.1515
   -11.1247 -11.1187  -8.9580  -8.0753  -8.0390  -7.1651   2.4136   3.6332
     5.1416   5.7574   6.0590   6.2112   6.8103   7.2495   7.5846   7.6571
     8.1152   8.2714  12.3925  13.4180  15.8449  15.8570  19.0501

          k = 0.3333-0.3333 0.2481 (  6192 PWs)   bands (ev):

   -11.8760 -11.7410 -11.4883 -11.4461 -11.2750 -11.2534 -11.1646 -11.1507
   -11.1464 -11.1430  -8.7863  -8.0074  -7.7035  -7.0536   2.2420   3.0714
     4.9924   5.3769   5.7709   6.1060   6.3878   7.1867   7.5095   7.8445
     8.1345   8.3980  12.8200  13.7550  16.6284  16.6649  18.2091

          k = 0.3333-0.3333 0.4962 (  6183 PWs)   bands (ev):

   -11.9445 -11.8041 -11.6203 -11.4044 -11.2071 -11.1914 -11.1825 -11.1663
   -11.1519 -11.1439  -8.4706  -7.9500  -7.0783  -6.7722   1.6670   2.1117
     4.5272   4.8371   4.8507   5.9906   6.2714   7.6531   7.6723   7.8360
     8.0944   8.2717  13.4155  13.9480  17.1530  17.8148  18.3219

          k = 0.3333-0.3333-0.7443 (  6202 PWs)   bands (ev):

   -12.0552 -11.9395 -11.5315 -11.3546 -11.2134 -11.2114 -11.1454 -11.1437
   -11.1170 -11.1143  -8.2446  -8.0219  -6.7737  -6.6092   1.3318   1.6610
     4.2870   4.3088   4.5416   6.3035   6.3747   7.7810   7.8257   7.8782
     7.9686   8.0712  13.5908  13.8459  16.8407  17.9932  19.0207

     the Fermi energy is    10.1675 ev

!    total energy              =    -447.58314762 Ry
     Harris-Foulkes estimate   =    -447.58314762 Ry
     estimated scf accuracy    <          7.8E-21 Ry

     The total energy is the sum of the following terms:

     one-electron contribution =    -125.49514558 Ry
     hartree contribution      =     101.49231914 Ry
     xc contribution           =    -122.08532102 Ry
     ewald contribution        =    -301.49500496 Ry
     smearing contrib. (-TS)   =       0.00000481 Ry

     convergence has been achieved in  22 iterations

     Forces acting on atoms (cartesian axes, Ry/au):

     atom    1 type  1   force =     0.00000003    0.00000003    0.00000000
     atom    2 type  1   force =     0.00000018    0.00000018    0.00000000
     atom    3 type  2   force =    -0.00018745    0.00018697    0.00000000
     atom    4 type  2   force =     0.00018697   -0.00018745    0.00000000
     atom    5 type  2   force =    -0.00018705   -0.00018705    0.00000000
     atom    6 type  2   force =     0.00018732    0.00018732    0.00000000

     Total force =     0.000529     Total SCF correction =     0.000000


     Computing stress (Cartesian axis) and pressure

          total   stress  (Ry/bohr**3)                   (kbar)     P=    5.27
   0.00003344  -0.00000000   0.00000000          4.92     -0.00      0.00
  -0.00000000   0.00003344   0.00000000         -0.00      4.92      0.00
   0.00000000   0.00000000   0.00004061          0.00      0.00      5.97


     Writing output data file SnO2.save
 
     init_run     :     49.47s CPU     92.84s WALL (       1 calls)
     electrons    :   3154.93s CPU   5943.40s WALL (       1 calls)
     forces       :      1.64s CPU      2.53s WALL (       1 calls)
     stress       :      3.40s CPU      4.77s WALL (       1 calls)

     Called by init_run:
     wfcinit      :     48.73s CPU     91.63s WALL (       1 calls)
     potinit      :      0.30s CPU      0.52s WALL (       1 calls)
     hinit0       :      0.20s CPU      0.34s WALL (       1 calls)

     Called by electrons:
     c_bands      :   2611.21s CPU   4915.37s WALL (      22 calls)
     sum_band     :    532.14s CPU   1005.65s WALL (      22 calls)
     v_of_rho     :      7.26s CPU     13.66s WALL (      23 calls)
     mix_rho      :      3.80s CPU      7.25s WALL (      22 calls)

     Called by c_bands:
     init_us_2    :      2.41s CPU      2.45s WALL (    2444 calls)
     cegterg      :   2592.60s CPU   4887.43s WALL (    1144 calls)

     Called by sum_band:

     Called by *egterg:
     h_psi        :   2529.14s CPU   4780.83s WALL (    3121 calls)
     g_psi        :      0.81s CPU      0.85s WALL (    1925 calls)
     cdiaghg      :     13.92s CPU     23.45s WALL (    3069 calls)

     Called by h_psi:
     h_psi:pot    :   2528.67s CPU   4780.33s WALL (    3121 calls)
     h_psi:calbec :     43.66s CPU     78.82s WALL (    3121 calls)
     vloc_psi     :   2479.45s CPU   4695.95s WALL (    3121 calls)
     add_vuspsi   :      5.54s CPU      5.55s WALL (    3121 calls)

     General routines
     calbec       :     45.95s CPU     82.80s WALL (    3381 calls)
     fft          :      7.71s CPU     14.56s WALL (     255 calls)
     ffts         :      0.51s CPU      0.99s WALL (      22 calls)
     fftw         :   2999.42s CPU   5686.42s WALL (  200032 calls)
 
     Parallel routines
     fft_scatt_xy :      9.44s CPU      9.38s WALL (  200309 calls)
     fft_scatt_yz :   2926.17s CPU   5619.83s WALL (  200309 calls)
 
     PWSCF        :     0h53m CPU        1h41m WALL

 
   This run was terminated on:  16:31:13  24May2018            

=------------------------------------------------------------------------------=
   JOB DONE.
=------------------------------------------------------------------------------=
