
     Program PWSCF v.6.2.2 starts on 10May2018 at  5: 1:24 

     This program is part of the open-source Quantum ESPRESSO suite
     for quantum simulation of materials; please cite
         "P. Giannozzi et al., J. Phys.:Condens. Matter 21 395502 (2009);
         "P. Giannozzi et al., J. Phys.:Condens. Matter 29 465901 (2017);
          URL http://www.quantum-espresso.org", 
     in publications or presentations arising from this work. More details at
     http://www.quantum-espresso.org/quote

     Parallel version (MPI), running on     4 processors

     MPI processes distributed on     1 nodes
     R & G space division:  proc/nbgrp/npool/nimage =       4
     Waiting for input...
     Reading input from standard input
Warning: card  &IONS ignored
Warning: card  / ignored
Warning: card  &CELL ignored
Warning: card  / ignored

     Current dimensions of program PWSCF are:
     Max number of different atomic species (ntypx) = 10
     Max number of k-points (npk) =  40000
     Max angular momentum in pseudopotentials (lmaxx) =  3

     Subspace diagonalization in iterative solution of the eigenvalue problem:
     a serial algorithm will be used

 
     Parallelization info
     --------------------
     sticks:   dense  smooth     PW     G-vecs:    dense   smooth      PW
     Min         500     500    147                11236    11236    1788
     Max         501     501    149                11237    11237    1789
     Sum        2001    2001    593                44945    44945    7155
 


     bravais-lattice index     =            6
     lattice parameter (alat)  =       9.1370  a.u.
     unit-cell volume          =     512.3005 (a.u.)^3
     number of atoms/cell      =            6
     number of atomic types    =            2
     number of electrons       =        51.99
     number of Kohn-Sham states=           31
     kinetic-energy cutoff     =      75.0000  Ry
     charge density cutoff     =     300.0000  Ry
     convergence threshold     =      1.0E-20
     mixing beta               =       0.7000
     number of iterations used =            8  plain     mixing
     Exchange-correlation      = PBE ( 1  4  3  4 0 0)

     celldm(1)=   9.137033  celldm(2)=   0.000000  celldm(3)=   0.671598
     celldm(4)=   0.000000  celldm(5)=   0.000000  celldm(6)=   0.000000

     crystal axes: (cart. coord. in units of alat)
               a(1) = (   1.000000   0.000000   0.000000 )  
               a(2) = (   0.000000   1.000000   0.000000 )  
               a(3) = (   0.000000   0.000000   0.671598 )  

     reciprocal axes: (cart. coord. in units 2 pi/alat)
               b(1) = (  1.000000  0.000000  0.000000 )  
               b(2) = (  0.000000  1.000000  0.000000 )  
               b(3) = (  0.000000  0.000000  1.488987 )  


     PseudoPot. # 1 for Sn read from file:
     ../../Pseudo_potentials/Sn_PBE.upf
     MD5 check sum: 78e6386ae56e929f0568ae8bf606a80c
     Pseudo is Norm-conserving + core correction, Zval = 14.0
     Generated using ONCVPSP code by D. R. Hamann
     Using radial grid of 1628 points,  6 beta functions with: 
                l(1) =   0
                l(2) =   0
                l(3) =   1
                l(4) =   1
                l(5) =   2
                l(6) =   2

     PseudoPot. # 2 for O  read from file:
     ../../Pseudo_potentials/O_PBE.upf
     MD5 check sum: 3e3f909f7470e8921608ab6b1f57bbae
     Pseudo is Norm-conserving + core correction, Zval =  6.0
     Generated using ONCVPSP code by D. R. Hamann
     Using radial grid of  936 points,  5 beta functions with: 
                l(1) =   0
                l(2) =   0
                l(3) =   1
                l(4) =   1
                l(5) =   2

     atomic species   valence    mass     pseudopotential
        Sn            14.00   118.71000     Sn( 1.00)
        O              6.00    15.99900     O ( 1.00)

      4 Sym. Ops. (no inversion) found



   Cartesian axes

     site n.     atom                  positions (alat units)
         1           Sn  tau(   1) = (  -0.0003320  -0.0003320   0.0000000  )
         2           Sn  tau(   2) = (   0.4996675   0.4996675   0.3357989  )
         3           O   tau(   3) = (   0.8063692   0.1929618   0.3357989  )
         4           O   tau(   4) = (   0.1929618   0.8063692   0.3357989  )
         5           O   tau(   5) = (   0.3063705   0.3063705   0.0000000  )
         6           O   tau(   6) = (   0.6929630   0.6929630   0.0000000  )

     number of k points=    52  Methfessel-Paxton smearing, width (Ry)=  0.0100
                       cart. coord. in units 2pi/alat
        k(    1) = (   0.0000000   0.0000000   0.0000000), wk =   0.0092593
        k(    2) = (   0.0000000   0.0000000   0.2481644), wk =   0.0185185
        k(    3) = (   0.0000000   0.0000000   0.4963289), wk =   0.0185185
        k(    4) = (   0.0000000   0.0000000  -0.7444933), wk =   0.0092593
        k(    5) = (   0.0000000   0.1666667   0.0000000), wk =   0.0370370
        k(    6) = (   0.0000000   0.1666667   0.2481644), wk =   0.0740741
        k(    7) = (   0.0000000   0.1666667   0.4963289), wk =   0.0740741
        k(    8) = (   0.0000000   0.1666667  -0.7444933), wk =   0.0370370
        k(    9) = (   0.0000000   0.3333333   0.0000000), wk =   0.0370370
        k(   10) = (   0.0000000   0.3333333   0.2481644), wk =   0.0740741
        k(   11) = (   0.0000000   0.3333333   0.4963289), wk =   0.0740741
        k(   12) = (   0.0000000   0.3333333  -0.7444933), wk =   0.0370370
        k(   13) = (   0.0000000  -0.5000000   0.0000000), wk =   0.0185185
        k(   14) = (   0.0000000  -0.5000000   0.2481644), wk =   0.0370370
        k(   15) = (   0.0000000  -0.5000000   0.4963289), wk =   0.0370370
        k(   16) = (   0.0000000  -0.5000000  -0.7444933), wk =   0.0185185
        k(   17) = (   0.1666667   0.1666667   0.0000000), wk =   0.0185185
        k(   18) = (   0.1666667   0.1666667   0.2481644), wk =   0.0370370
        k(   19) = (   0.1666667   0.1666667   0.4963289), wk =   0.0370370
        k(   20) = (   0.1666667   0.1666667  -0.7444933), wk =   0.0185185
        k(   21) = (   0.1666667   0.3333333   0.0000000), wk =   0.0370370
        k(   22) = (   0.1666667   0.3333333   0.2481644), wk =   0.0740741
        k(   23) = (   0.1666667   0.3333333   0.4963289), wk =   0.0740741
        k(   24) = (   0.1666667   0.3333333  -0.7444933), wk =   0.0370370
        k(   25) = (   0.1666667  -0.5000000   0.0000000), wk =   0.0370370
        k(   26) = (   0.1666667  -0.5000000   0.2481644), wk =   0.0740741
        k(   27) = (   0.1666667  -0.5000000   0.4963289), wk =   0.0740741
        k(   28) = (   0.1666667  -0.5000000  -0.7444933), wk =   0.0370370
        k(   29) = (   0.3333333   0.3333333   0.0000000), wk =   0.0185185
        k(   30) = (   0.3333333   0.3333333   0.2481644), wk =   0.0370370
        k(   31) = (   0.3333333   0.3333333   0.4963289), wk =   0.0370370
        k(   32) = (   0.3333333   0.3333333  -0.7444933), wk =   0.0185185
        k(   33) = (   0.3333333  -0.5000000   0.0000000), wk =   0.0370370
        k(   34) = (   0.3333333  -0.5000000   0.2481644), wk =   0.0740741
        k(   35) = (   0.3333333  -0.5000000   0.4963289), wk =   0.0740741
        k(   36) = (   0.3333333  -0.5000000  -0.7444933), wk =   0.0370370
        k(   37) = (  -0.5000000  -0.5000000   0.0000000), wk =   0.0092593
        k(   38) = (  -0.5000000  -0.5000000   0.2481644), wk =   0.0185185
        k(   39) = (  -0.5000000  -0.5000000   0.4963289), wk =   0.0185185
        k(   40) = (  -0.5000000  -0.5000000  -0.7444933), wk =   0.0092593
        k(   41) = (   0.1666667  -0.1666667   0.0000000), wk =   0.0185185
        k(   42) = (   0.1666667  -0.1666667   0.2481644), wk =   0.0370370
        k(   43) = (   0.1666667  -0.1666667   0.4963289), wk =   0.0370370
        k(   44) = (   0.1666667  -0.1666667  -0.7444933), wk =   0.0185185
        k(   45) = (   0.3333333  -0.1666667   0.0000000), wk =   0.0370370
        k(   46) = (   0.3333333  -0.1666667   0.2481644), wk =   0.0740741
        k(   47) = (   0.3333333  -0.1666667   0.4963289), wk =   0.0740741
        k(   48) = (   0.3333333  -0.1666667  -0.7444933), wk =   0.0370370
        k(   49) = (   0.3333333  -0.3333333   0.0000000), wk =   0.0185185
        k(   50) = (   0.3333333  -0.3333333   0.2481644), wk =   0.0370370
        k(   51) = (   0.3333333  -0.3333333   0.4963289), wk =   0.0370370
        k(   52) = (   0.3333333  -0.3333333  -0.7444933), wk =   0.0185185

     Dense  grid:    44945 G-vectors     FFT dimensions: (  54,  54,  36)

     Estimated max dynamical RAM per process >      54.00 MB

     Estimated total dynamical RAM >     216.00 MB

     Check: negative/imaginary core charge=   -0.000002    0.000000

     Initial potential from superposition of free atoms

     starting charge   51.99690, renormalised to   51.99000
     Starting wfc are   34 randomized atomic wfcs

     total cpu time spent up to now is        5.2 secs

     Self-consistent Calculation

     iteration #  1     ecut=    75.00 Ry     beta= 0.70
     Davidson diagonalization with overlap
     ethr =  1.00E-02,  avg # of iterations =  2.6

     total cpu time spent up to now is       16.0 secs

     total energy              =    -446.86621705 Ry
     Harris-Foulkes estimate   =    -448.03941626 Ry
     estimated scf accuracy    <       1.59305084 Ry

     iteration #  2     ecut=    75.00 Ry     beta= 0.70
     Davidson diagonalization with overlap
     ethr =  3.06E-03,  avg # of iterations =  2.4

     total cpu time spent up to now is       28.0 secs

     total energy              =    -447.26498960 Ry
     Harris-Foulkes estimate   =    -448.07039680 Ry
     estimated scf accuracy    <       1.66600765 Ry

     iteration #  3     ecut=    75.00 Ry     beta= 0.70
     Davidson diagonalization with overlap
     ethr =  3.06E-03,  avg # of iterations =  2.0

     total cpu time spent up to now is       39.0 secs

     total energy              =    -447.59413985 Ry
     Harris-Foulkes estimate   =    -447.59493397 Ry
     estimated scf accuracy    <       0.00633981 Ry

     iteration #  4     ecut=    75.00 Ry     beta= 0.70
     Davidson diagonalization with overlap
     ethr =  1.22E-05,  avg # of iterations =  3.6

     total cpu time spent up to now is       52.6 secs

     total energy              =    -447.59575541 Ry
     Harris-Foulkes estimate   =    -447.59594344 Ry
     estimated scf accuracy    <       0.00038322 Ry

     iteration #  5     ecut=    75.00 Ry     beta= 0.70
     Davidson diagonalization with overlap
     ethr =  7.37E-07,  avg # of iterations =  2.1

     total cpu time spent up to now is       62.3 secs

     total energy              =    -447.59577407 Ry
     Harris-Foulkes estimate   =    -447.59577807 Ry
     estimated scf accuracy    <       0.00001610 Ry

     iteration #  6     ecut=    75.00 Ry     beta= 0.70
     Davidson diagonalization with overlap
     ethr =  3.10E-08,  avg # of iterations =  2.2

     total cpu time spent up to now is       74.9 secs

     total energy              =    -447.59577924 Ry
     Harris-Foulkes estimate   =    -447.59578172 Ry
     estimated scf accuracy    <       0.00000659 Ry

     iteration #  7     ecut=    75.00 Ry     beta= 0.70
     Davidson diagonalization with overlap
     ethr =  1.27E-08,  avg # of iterations =  2.0

     total cpu time spent up to now is       85.3 secs

     total energy              =    -447.59577972 Ry
     Harris-Foulkes estimate   =    -447.59578025 Ry
     estimated scf accuracy    <       0.00000110 Ry

     iteration #  8     ecut=    75.00 Ry     beta= 0.70
     Davidson diagonalization with overlap
     ethr =  2.12E-09,  avg # of iterations =  2.0

     total cpu time spent up to now is       96.7 secs

     total energy              =    -447.59577991 Ry
     Harris-Foulkes estimate   =    -447.59577991 Ry
     estimated scf accuracy    <       0.00000007 Ry

     iteration #  9     ecut=    75.00 Ry     beta= 0.70
     Davidson diagonalization with overlap
     ethr =  1.39E-10,  avg # of iterations =  2.2

     total cpu time spent up to now is      108.3 secs

     total energy              =    -447.59577992 Ry
     Harris-Foulkes estimate   =    -447.59577993 Ry
     estimated scf accuracy    <       0.00000002 Ry

     iteration # 10     ecut=    75.00 Ry     beta= 0.70
     Davidson diagonalization with overlap
     ethr =  3.69E-11,  avg # of iterations =  2.0

     total cpu time spent up to now is      118.8 secs

     total energy              =    -447.59577992 Ry
     Harris-Foulkes estimate   =    -447.59577993 Ry
     estimated scf accuracy    <          1.9E-09 Ry

     iteration # 11     ecut=    75.00 Ry     beta= 0.70
     Davidson diagonalization with overlap
     ethr =  3.61E-12,  avg # of iterations =  2.0

     total cpu time spent up to now is      130.0 secs

     total energy              =    -447.59577993 Ry
     Harris-Foulkes estimate   =    -447.59577993 Ry
     estimated scf accuracy    <          5.5E-11 Ry

     iteration # 12     ecut=    75.00 Ry     beta= 0.70
     Davidson diagonalization with overlap
     ethr =  1.05E-13,  avg # of iterations =  2.1

     total cpu time spent up to now is      141.7 secs

     total energy              =    -447.59577993 Ry
     Harris-Foulkes estimate   =    -447.59577993 Ry
     estimated scf accuracy    <          1.3E-11 Ry

     iteration # 13     ecut=    75.00 Ry     beta= 0.70
     Davidson diagonalization with overlap
     ethr =  1.00E-13,  avg # of iterations =  1.5

     total cpu time spent up to now is      151.1 secs

     total energy              =    -447.59577993 Ry
     Harris-Foulkes estimate   =    -447.59577993 Ry
     estimated scf accuracy    <          6.1E-13 Ry

     iteration # 14     ecut=    75.00 Ry     beta= 0.70
     Davidson diagonalization with overlap
     ethr =  1.00E-13,  avg # of iterations =  1.0

     total cpu time spent up to now is      160.2 secs

     total energy              =    -447.59577993 Ry
     Harris-Foulkes estimate   =    -447.59577993 Ry
     estimated scf accuracy    <          2.4E-14 Ry

     iteration # 15     ecut=    75.00 Ry     beta= 0.70
     Davidson diagonalization with overlap
     ethr =  1.00E-13,  avg # of iterations =  1.0

     total cpu time spent up to now is      169.5 secs

     total energy              =    -447.59577993 Ry
     Harris-Foulkes estimate   =    -447.59577993 Ry
     estimated scf accuracy    <          3.6E-15 Ry

     iteration # 16     ecut=    75.00 Ry     beta= 0.70
     Davidson diagonalization with overlap
     ethr =  1.00E-13,  avg # of iterations =  1.0

     total cpu time spent up to now is      178.6 secs

     total energy              =    -447.59577993 Ry
     Harris-Foulkes estimate   =    -447.59577993 Ry
     estimated scf accuracy    <          9.9E-16 Ry

     iteration # 17     ecut=    75.00 Ry     beta= 0.70
     Davidson diagonalization with overlap
     ethr =  1.00E-13,  avg # of iterations =  1.0

     total cpu time spent up to now is      187.8 secs

     total energy              =    -447.59577993 Ry
     Harris-Foulkes estimate   =    -447.59577993 Ry
     estimated scf accuracy    <          1.1E-16 Ry

     iteration # 18     ecut=    75.00 Ry     beta= 0.70
     Davidson diagonalization with overlap
     ethr =  1.00E-13,  avg # of iterations =  1.0

     total cpu time spent up to now is      196.9 secs

     total energy              =    -447.59577993 Ry
     Harris-Foulkes estimate   =    -447.59577993 Ry
     estimated scf accuracy    <          1.5E-17 Ry

     iteration # 19     ecut=    75.00 Ry     beta= 0.70
     Davidson diagonalization with overlap
     ethr =  1.00E-13,  avg # of iterations =  1.0

     total cpu time spent up to now is      206.0 secs

     total energy              =    -447.59577993 Ry
     Harris-Foulkes estimate   =    -447.59577993 Ry
     estimated scf accuracy    <          2.1E-18 Ry

     iteration # 20     ecut=    75.00 Ry     beta= 0.70
     Davidson diagonalization with overlap
     ethr =  1.00E-13,  avg # of iterations =  1.0

     total cpu time spent up to now is      215.2 secs

     total energy              =    -447.59577993 Ry
     Harris-Foulkes estimate   =    -447.59577993 Ry
     estimated scf accuracy    <          5.3E-19 Ry

     iteration # 21     ecut=    75.00 Ry     beta= 0.70
     Davidson diagonalization with overlap
     ethr =  1.00E-13,  avg # of iterations =  1.0

     total cpu time spent up to now is      224.2 secs

     total energy              =    -447.59577993 Ry
     Harris-Foulkes estimate   =    -447.59577993 Ry
     estimated scf accuracy    <          2.1E-19 Ry

     iteration # 22     ecut=    75.00 Ry     beta= 0.70
     Davidson diagonalization with overlap
     ethr =  1.00E-13,  avg # of iterations =  1.0

     total cpu time spent up to now is      233.5 secs

     End of self-consistent calculation

          k = 0.0000 0.0000 0.0000 (  5609 PWs)   bands (ev):

   -12.1607 -11.5416 -11.3426 -11.3150 -11.3150 -11.2342 -11.2137 -11.1476
   -11.1364 -11.1364  -9.6903  -7.9773  -7.9773  -6.5188   0.9509   5.0295
     5.0295   5.1335   6.0308   6.8881   6.9403   7.6214   7.6214   8.1918
     8.1918   8.8970   9.4979  14.4948  14.9575  14.9575  18.9684

          k = 0.0000 0.0000 0.2482 (  5645 PWs)   bands (ev):

   -12.0505 -11.5007 -11.5007 -11.4348 -11.3037 -11.2494 -11.2054 -11.1624
   -11.1624 -11.1483  -9.5343  -7.6488  -7.6488  -6.6990   0.9568   4.9185
     5.2551   5.2551   5.3834   6.2055   6.6456   6.7861   6.7861   8.1894
     8.1894   8.6961  11.0421  14.9254  15.9876  15.9876  17.7669

          k = 0.0000 0.0000 0.4963 (  5605 PWs)   bands (ev):

   -11.8133 -11.8133 -11.7926 -11.3752 -11.2106 -11.2049 -11.2049 -11.1941
   -11.1858 -11.1529  -9.0098  -7.2680  -7.0364  -7.0364   1.1312   3.3561
     4.7957   5.3486   5.3486   5.9571   5.9815   5.9815   6.6984   7.9657
     7.9657   8.1456  13.0219  15.1336  17.4030  17.8927  17.8927

          k = 0.0000 0.0000-0.7445 (  5592 PWs)   bands (ev):

   -11.9478 -11.9478 -11.5358 -11.5358 -11.2251 -11.2251 -11.1656 -11.1656
   -11.1396 -11.1396  -8.1482  -8.1482  -6.7388  -6.7388   1.8678   1.8678
     4.8500   4.8500   5.2012   5.2012   6.3214   6.3214   7.4062   7.4062
     7.7327   7.7327  14.3952  14.3952  18.2506  18.2506  19.1853

          k = 0.0000 0.1667 0.0000 (  5629 PWs)   bands (ev):

   -12.1248 -11.5795 -11.3413 -11.3134 -11.3134 -11.2627 -11.2086 -11.1513
   -11.1383 -11.1382  -9.6066  -8.1442  -7.8472  -6.5684   1.1336   4.5136
     5.1503   5.2304   6.1738   6.7675   7.0987   7.6033   7.6310   7.6546
     8.2052   8.7698  10.2496  14.2516  15.0803  15.1851  19.2451

          k = 0.0000 0.1667 0.2482 (  5631 PWs)   bands (ev):

   -12.0238 -11.5689 -11.4942 -11.4228 -11.2994 -11.2483 -11.2013 -11.1626
   -11.1611 -11.1506  -9.4501  -7.8588  -7.5459  -6.6808   1.1448   4.6111
     4.6333   5.2717   5.7317   6.2248   6.6417   6.9294   7.1047   8.0421
     8.1767   8.6430  11.3744  14.7451  16.0753  16.1186  17.8961

          k = 0.0000 0.1667 0.4963 (  5628 PWs)   bands (ev):

   -11.9155 -11.8587 -11.6575 -11.3461 -11.2198 -11.2111 -11.1961 -11.1890
   -11.1813 -11.1539  -8.9642  -7.5990  -6.9763  -6.8246   1.2854   3.2456
     4.3466   4.9665   5.3604   5.4310   6.3914   6.7775   6.9142   7.9306
     8.0056   8.1794  13.1525  15.0685  17.2679  17.7126  17.9842

          k = 0.0000 0.1667-0.7445 (  5608 PWs)   bands (ev):

   -11.9959 -11.9959 -11.4709 -11.4709 -11.2272 -11.2272 -11.1644 -11.1644
   -11.1368 -11.1368  -8.2029  -8.2029  -6.6942  -6.6942   1.9128   1.9128
     4.5081   4.5081   4.9970   4.9970   6.8223   6.8223   7.4947   7.4947
     7.7598   7.7598  14.4385  14.4385  17.6731  17.6731  19.2428

          k = 0.0000 0.3333 0.0000 (  5653 PWs)   bands (ev):

   -12.0216 -11.6997 -11.3370 -11.3101 -11.3100 -11.3052 -11.1953 -11.1621
   -11.1422 -11.1421  -9.3613  -8.5376  -7.5151  -6.7625   1.6693   3.5146
     5.4957   5.5059   6.3717   6.5560   6.7458   7.2763   7.6554   7.6861
     8.2409   8.4925  11.4883  13.6569  15.4168  15.5559  19.2833

          k = 0.0000 0.3333 0.2482 (  5622 PWs)   bands (ev):

   -11.9471 -11.6957 -11.4762 -11.4296 -11.2875 -11.2550 -11.1905 -11.1651
   -11.1621 -11.1551  -9.1963  -8.3105  -7.2857  -6.7527   1.6887   3.5556
     4.4919   4.9210   6.1791   6.5582   6.5640   7.2411   7.4327   7.6873
     8.1565   8.4541  12.2283  14.1832  16.3535  16.4184  18.1013

          k = 0.0000 0.3333 0.4963 (  5631 PWs)   bands (ev):

   -11.9783 -11.9367 -11.5056 -11.3274 -11.2278 -11.2213 -11.1871 -11.1818
   -11.1716 -11.1571  -8.8003  -8.0629  -6.8367  -6.6885   1.7226   2.9220
     3.8859   4.1182   5.3500   5.3581   7.1472   7.1879   7.3022   7.9046
     8.0215   8.2277  13.5706  14.7949  17.0529  17.2768  18.1773

          k = 0.0000 0.3333-0.7445 (  5618 PWs)   bands (ev):

   -12.0672 -12.0672 -11.3677 -11.3677 -11.2280 -11.2280 -11.1622 -11.1622
   -11.1311 -11.1311  -8.3063  -8.3063  -6.6121  -6.6121   2.0324   2.0324
     3.8691   3.8691   4.9160   4.9160   7.2208   7.2208   7.7524   7.7524
     7.9535   7.9535  14.5533  14.5533  16.8668  16.8668  19.3633

          k = 0.0000-0.5000 0.0000 (  5638 PWs)   bands (ev):

   -11.8675 -11.8675 -11.3274 -11.3274 -11.3083 -11.3083 -11.1781 -11.1781
   -11.1441 -11.1441  -8.9830  -8.9830  -7.1090  -7.1090   2.5011   2.5011
     5.9130   5.9130   6.0374   6.0375   7.0207   7.0208   7.6808   7.6808
     8.3094   8.3094  12.7003  12.7003  15.6915  15.6915  19.2458

          k = 0.0000-0.5000 0.2482 (  5612 PWs)   bands (ev):

   -11.8312 -11.8312 -11.4517 -11.4517 -11.2708 -11.2708 -11.1768 -11.1768
   -11.1595 -11.1595  -8.7949  -8.7949  -6.9802  -6.9802   2.5265   2.5265
     4.6111   4.6111   6.3796   6.3796   7.1767   7.1767   7.4932   7.4932
     8.2222   8.2222  13.2744  13.2745  16.5893  16.5893  18.3722

          k = 0.0000-0.5000 0.4963 (  5638 PWs)   bands (ev):

   -11.9843 -11.9843 -11.3829 -11.3829 -11.2287 -11.2287 -11.1808 -11.1808
   -11.1628 -11.1628  -8.4895  -8.4895  -6.7101  -6.7101   2.3477   2.3477
     3.7559   3.7559   5.3325   5.3325   7.3432   7.3432   7.7731   7.7731
     8.0978   8.0978  14.2198  14.2198  17.0041  17.0042  18.4725

          k = 0.0000-0.5000-0.7445 (  5596 PWs)   bands (ev):

   -12.0960 -12.0960 -11.3262 -11.3262 -11.2246 -11.2246 -11.1610 -11.1610
   -11.1281 -11.1281  -8.3559  -8.3559  -6.5739  -6.5739   2.1174   2.1174
     3.5803   3.5803   4.8918   4.8918   7.2420   7.2420   7.9157   7.9157
     8.1322   8.1322  14.6386  14.6386  16.4886  16.4886  19.4314

          k = 0.1667 0.1667 0.0000 (  5620 PWs)   bands (ev):

   -12.0962 -11.6204 -11.3395 -11.3155 -11.3098 -11.2806 -11.2042 -11.1545
   -11.1423 -11.1362  -9.5176  -8.0244  -8.0029  -6.6373   1.3230   4.3636
     5.0437   5.3192   6.2904   6.6465   7.1519   7.3203   7.6038   7.6849
     8.1645   8.6672  10.7522  14.0648  15.2885  15.3016  19.1566

          k = 0.1667 0.1667 0.2482 (  5634 PWs)   bands (ev):

   -12.0005 -11.6060 -11.5020 -11.4228 -11.2986 -11.2478 -11.1976 -11.1632
   -11.1613 -11.1528  -9.3592  -7.8189  -7.6723  -6.6958   1.3272   4.0068
     5.1259   5.2875   5.4583   6.1810   6.6665   6.9776   7.3508   7.9114
     8.1715   8.6082  11.6595  14.5613  16.1963  16.2375  17.9174

          k = 0.1667 0.1667 0.4963 (  5618 PWs)   bands (ev):

   -11.9653 -11.8155 -11.6675 -11.3269 -11.2248 -11.2078 -11.2006 -11.1836
   -11.1787 -11.1549  -8.9073  -7.6879  -7.0561  -6.7164   1.3904   3.0703
     4.0215   5.1100   5.1721   5.8614   5.9093   7.0661   7.2237   7.9589
     8.0010   8.2075  13.2279  14.9281  16.9907  17.9355  17.9547

          k = 0.1667 0.1667-0.7445 (  5618 PWs)   bands (ev):

   -12.0661 -11.9502 -11.5402 -11.3615 -11.2297 -11.2274 -11.1644 -11.1626
   -11.1368 -11.1329  -8.3225  -8.1120  -6.7564  -6.6051   1.6647   2.1663
     3.9705   4.5519   4.6415   5.7316   6.3277   7.4677   7.5818   7.5873
     7.6847   7.8414  14.1761  14.6424  16.7620  18.5172  18.8806

          k = 0.1667 0.3333 0.0000 (  5627 PWs)   bands (ev):

   -12.0124 -11.7357 -11.3342 -11.3142 -11.3083 -11.3082 -11.1924 -11.1636
   -11.1441 -11.1379  -9.2595  -8.4109  -7.6760  -6.8714   1.8665   3.6102
     5.3198   5.5699   6.3313   6.5472   6.6165   7.2825   7.6114   7.6845
     8.1729   8.4250  11.7633  13.5935  15.5681  15.6490  19.0862

          k = 0.1667 0.3333 0.2482 (  5625 PWs)   bands (ev):

   -11.9328 -11.7093 -11.4905 -11.4376 -11.2910 -11.2577 -11.1879 -11.1660
   -11.1624 -11.1570  -9.0920  -8.2024  -7.4455  -6.8281   1.8404   3.3616
     4.8359   4.9540   6.0201   6.2739   6.5717   7.2695   7.5497   7.6185
     8.1532   8.4576  12.3886  14.0537  16.4558  16.4997  18.0365

          k = 0.1667 0.3333 0.4963 (  5618 PWs)   bands (ev):

   -11.9885 -11.8805 -11.5655 -11.3415 -11.2285 -11.2158 -11.1923 -11.1805
   -11.1713 -11.1581  -8.7180  -8.0037  -6.9647  -6.6847   1.6795   2.5944
     3.9526   4.6714   5.0896   5.4751   6.7605   7.3652   7.5564   7.8918
     8.0319   8.2365  13.4867  14.4985  16.9154  17.6817  18.1848

          k = 0.1667 0.3333-0.7445 (  5606 PWs)   bands (ev):

   -12.0959 -11.9992 -11.4781 -11.3198 -11.2307 -11.2273 -11.1627 -11.1610
   -11.1324 -11.1300  -8.3565  -8.1511  -6.7172  -6.5723   1.6009   2.0838
     3.7907   4.3004   4.5913   5.3977   6.9356   7.5540   7.7058   7.8477
     7.8797   8.0202  14.0304  14.4831  16.4657  17.7550  19.1883

          k = 0.1667-0.5000 0.0000 (  5610 PWs)   bands (ev):

   -11.8831 -11.8831 -11.3249 -11.3249 -11.3105 -11.3105 -11.1773 -11.1773
   -11.1419 -11.1419  -8.8667  -8.8667  -7.2518  -7.2518   2.6792   2.6793
     5.8696   5.8696   5.9347   5.9347   7.0273   7.0273   7.6498   7.6498
     8.2442   8.2442  12.7952  12.7952  15.7800  15.7800  19.2311

          k = 0.1667-0.5000 0.2482 (  5630 PWs)   bands (ev):

   -11.8295 -11.8295 -11.4645 -11.4645 -11.2757 -11.2757 -11.1758 -11.1758
   -11.1603 -11.1603  -8.6818  -8.6818  -7.1078  -7.1077   2.5799   2.5800
     4.7559   4.7559   6.2462   6.2462   7.0147   7.0147   7.5708   7.5709
     8.2434   8.2434  13.2767  13.2767  16.6288  16.6288  18.4611

          k = 0.1667-0.5000 0.4963 (  5626 PWs)   bands (ev):

   -11.9574 -11.9574 -11.4322 -11.4322 -11.2245 -11.2245 -11.1838 -11.1838
   -11.1636 -11.1636  -8.3949  -8.3949  -6.7906  -6.7906   2.0960   2.0960
     4.1965   4.1965   5.2038   5.2038   7.4105   7.4105   7.7023   7.7023
     8.1200   8.1200  13.9463  13.9463  17.2218  17.2218  18.5113

          k = 0.1667-0.5000-0.7445 (  5596 PWs)   bands (ev):

   -12.0691 -12.0691 -11.3722 -11.3722 -11.2282 -11.2282 -11.1610 -11.1610
   -11.1300 -11.1300  -8.2749  -8.2749  -6.6233  -6.6233   1.7720   1.7720
     4.0070   4.0070   4.8727   4.8727   7.3753   7.3753   7.9625   7.9625
     7.9966   7.9966  14.1332  14.1332  16.9108  16.9108  19.3948

          k = 0.3333 0.3333 0.0000 (  5620 PWs)   bands (ev):

   -11.9789 -11.8215 -11.3276 -11.3165 -11.3141 -11.3108 -11.1848 -11.1682
   -11.1417 -11.1357  -8.9711  -8.0911  -8.0542  -7.1834   2.4006   3.6187
     5.1287   5.7451   6.0446   6.1978   6.7971   7.2345   7.5689   7.6413
     8.0982   8.2546  12.3699  13.3963  15.8319  15.8421  19.0295

          k = 0.3333 0.3333 0.2482 (  5622 PWs)   bands (ev):

   -11.8906 -11.7559 -11.5044 -11.4623 -11.2915 -11.2698 -11.1813 -11.1675
   -11.1633 -11.1598  -8.7998  -8.0233  -7.7193  -7.0719   2.2297   3.0589
     4.9799   5.3638   5.7574   6.0935   6.3745   7.1700   7.4942   7.8282
     8.1175   8.3807  12.7973  13.7326  16.6129  16.6512  18.1908

          k = 0.3333 0.3333 0.4963 (  5610 PWs)   bands (ev):

   -11.9593 -11.8197 -11.6353 -11.4203 -11.2237 -11.2082 -11.1992 -11.1831
   -11.1686 -11.1606  -8.4850  -7.9662  -7.0953  -6.7905   1.6567   2.1012
     4.5144   4.8260   4.8402   5.9760   6.2554   7.6354   7.6568   7.8198
     8.0777   8.2547  13.3932  13.9255  17.1354  17.7989  18.3069

          k = 0.3333 0.3333-0.7445 (  5600 PWs)   bands (ev):

   -12.0700 -11.9549 -11.5465 -11.3705 -11.2301 -11.2282 -11.1621 -11.1604
   -11.1339 -11.1313  -8.2597  -8.0380  -6.7912  -6.6274   1.3225   1.6510
     4.2769   4.2989   4.5283   6.2871   6.3593   7.7630   7.8096   7.8620
     7.9527   8.0548  13.5687  13.8240  16.8232  17.9781  19.0030

          k = 0.3333-0.5000 0.0000 (  5636 PWs)   bands (ev):

   -11.9129 -11.9129 -11.3206 -11.3206 -11.3149 -11.3149 -11.1758 -11.1758
   -11.1375 -11.1375  -8.5470  -8.5470  -7.6233  -7.6233   3.1004   3.1004
     5.4610   5.4610   5.9804   5.9804   7.0492   7.0492   7.5853   7.5853
     8.1185   8.1185  12.9815  12.9815  15.9453  15.9453  19.2820

          k = 0.3333-0.5000 0.2482 (  5614 PWs)   bands (ev):

   -11.8258 -11.8258 -11.4915 -11.4915 -11.2837 -11.2837 -11.1733 -11.1733
   -11.1620 -11.1620  -8.3818  -8.3818  -7.4371  -7.4371   2.6874   2.6874
     5.1271   5.1271   6.0282   6.0282   6.5892   6.5892   7.7715   7.7715
     8.2042   8.2042  13.2916  13.2916  16.6912  16.6912  18.7831

          k = 0.3333-0.5000 0.4963 (  5586 PWs)   bands (ev):

   -11.8845 -11.8845 -11.5475 -11.5475 -11.2151 -11.2151 -11.1914 -11.1914
   -11.1643 -11.1643  -8.1745  -8.1745  -6.9856  -6.9856   1.7803   1.7803
     4.7245   4.7245   5.3209   5.3209   7.0132   7.0133   7.8762   7.8762
     8.1672   8.1673  13.5154  13.5154  17.5037  17.5037  18.7055

          k = 0.3333-0.5000-0.7445 (  5608 PWs)   bands (ev):

   -12.0024 -12.0024 -11.4816 -11.4816 -11.2282 -11.2282 -11.1610 -11.1610
   -11.1336 -11.1336  -8.0991  -8.0991  -6.7386  -6.7386   1.3387   1.3387
     4.2058   4.2058   5.4497   5.4497   7.2143   7.2143   7.9153   7.9153
     8.0778   8.0778  13.4532  13.4532  17.3860  17.3860  19.3424

          k =-0.5000-0.5000 0.0000 (  5660 PWs)   bands (ev):

   -11.9271 -11.9271 -11.3186 -11.3186 -11.3170 -11.3170 -11.1750 -11.1750
   -11.1354 -11.1354  -8.1157  -8.1157  -8.0799  -8.0799   3.3737   3.3737
     5.1913   5.1913   6.0046   6.0046   7.0644   7.0644   7.5516   7.5516
     8.0566   8.0566  13.0741  13.0741  16.0186  16.0186  19.3573

          k =-0.5000-0.5000 0.2482 (  5624 PWs)   bands (ev):

   -11.8236 -11.8236 -11.5055 -11.5055 -11.2869 -11.2869 -11.1715 -11.1715
   -11.1631 -11.1631  -8.0909  -8.0909  -7.7428  -7.7428   2.7418   2.7418
     5.3952   5.3952   6.0674   6.0674   6.1569   6.1569   7.9631   7.9631
     8.0776   8.0776  13.3040  13.3040  16.7121  16.7121  19.1763

          k =-0.5000-0.5000 0.4963 (  5588 PWs)   bands (ev):

   -11.8217 -11.8217 -11.6305 -11.6305 -11.2064 -11.2064 -11.1993 -11.1993
   -11.1645 -11.1645  -8.0338  -8.0338  -7.1147  -7.1147   1.6637   1.6637
     4.6955   4.6955   6.0369   6.0369   6.3712   6.3712   8.0680   8.0680
     8.1203   8.1203  13.3385  13.3385  17.5806  17.5806  19.0485

          k =-0.5000-0.5000-0.7445 (  5616 PWs)   bands (ev):

   -11.9571 -11.9571 -11.5483 -11.5483 -11.2269 -11.2269 -11.1610 -11.1610
   -11.1355 -11.1355  -8.0003  -8.0003  -6.8085  -6.8085   1.1748   1.1748
     4.1518   4.1518   6.3815   6.3815   6.4621   6.4621   7.9973   7.9973
     8.1419   8.1419  13.1868  13.1868  17.5299  17.5299  19.4189

          k = 0.1667-0.1667 0.0000 (  5620 PWs)   bands (ev):

   -12.0962 -11.6204 -11.3395 -11.3155 -11.3098 -11.2806 -11.2042 -11.1545
   -11.1423 -11.1362  -9.5176  -8.0244  -8.0029  -6.6373   1.3230   4.3636
     5.0437   5.3192   6.2904   6.6465   7.1519   7.3203   7.6038   7.6849
     8.1645   8.6672  10.7522  14.0648  15.2885  15.3016  19.1566

          k = 0.1667-0.1667 0.2482 (  5634 PWs)   bands (ev):

   -12.0005 -11.6060 -11.5020 -11.4228 -11.2986 -11.2478 -11.1976 -11.1632
   -11.1613 -11.1528  -9.3592  -7.8189  -7.6723  -6.6958   1.3272   4.0068
     5.1259   5.2875   5.4583   6.1810   6.6665   6.9776   7.3508   7.9114
     8.1715   8.6082  11.6595  14.5613  16.1963  16.2375  17.9174

          k = 0.1667-0.1667 0.4963 (  5618 PWs)   bands (ev):

   -11.9653 -11.8155 -11.6675 -11.3269 -11.2248 -11.2078 -11.2006 -11.1836
   -11.1787 -11.1549  -8.9073  -7.6879  -7.0561  -6.7164   1.3904   3.0703
     4.0215   5.1100   5.1721   5.8614   5.9093   7.0661   7.2237   7.9589
     8.0010   8.2075  13.2279  14.9281  16.9907  17.9355  17.9547

          k = 0.1667-0.1667-0.7445 (  5618 PWs)   bands (ev):

   -12.0661 -11.9502 -11.5402 -11.3615 -11.2297 -11.2274 -11.1644 -11.1626
   -11.1368 -11.1329  -8.3225  -8.1120  -6.7564  -6.6051   1.6647   2.1663
     3.9705   4.5519   4.6415   5.7316   6.3277   7.4677   7.5818   7.5873
     7.6847   7.8414  14.1761  14.6424  16.7620  18.5172  18.8806

          k = 0.3333-0.1667 0.0000 (  5627 PWs)   bands (ev):

   -12.0124 -11.7357 -11.3342 -11.3142 -11.3083 -11.3082 -11.1924 -11.1636
   -11.1441 -11.1379  -9.2595  -8.4109  -7.6760  -6.8714   1.8665   3.6102
     5.3198   5.5699   6.3313   6.5472   6.6165   7.2825   7.6114   7.6845
     8.1729   8.4250  11.7633  13.5935  15.5681  15.6490  19.0862

          k = 0.3333-0.1667 0.2482 (  5625 PWs)   bands (ev):

   -11.9328 -11.7093 -11.4905 -11.4376 -11.2910 -11.2577 -11.1879 -11.1660
   -11.1624 -11.1570  -9.0920  -8.2024  -7.4455  -6.8281   1.8404   3.3616
     4.8359   4.9540   6.0201   6.2739   6.5717   7.2695   7.5497   7.6185
     8.1532   8.4576  12.3886  14.0537  16.4558  16.4997  18.0365

          k = 0.3333-0.1667 0.4963 (  5618 PWs)   bands (ev):

   -11.9885 -11.8805 -11.5655 -11.3415 -11.2285 -11.2158 -11.1923 -11.1805
   -11.1713 -11.1581  -8.7180  -8.0037  -6.9647  -6.6847   1.6795   2.5944
     3.9526   4.6714   5.0896   5.4751   6.7605   7.3652   7.5564   7.8918
     8.0319   8.2365  13.4867  14.4985  16.9154  17.6817  18.1848

          k = 0.3333-0.1667-0.7445 (  5606 PWs)   bands (ev):

   -12.0959 -11.9992 -11.4781 -11.3198 -11.2307 -11.2273 -11.1627 -11.1610
   -11.1324 -11.1300  -8.3565  -8.1511  -6.7172  -6.5723   1.6009   2.0838
     3.7907   4.3004   4.5913   5.3977   6.9356   7.5540   7.7058   7.8477
     7.8797   8.0202  14.0304  14.4831  16.4657  17.7550  19.1883

          k = 0.3333-0.3333 0.0000 (  5620 PWs)   bands (ev):

   -11.9789 -11.8215 -11.3276 -11.3165 -11.3141 -11.3108 -11.1848 -11.1682
   -11.1417 -11.1357  -8.9711  -8.0911  -8.0542  -7.1834   2.4006   3.6187
     5.1287   5.7451   6.0446   6.1978   6.7971   7.2345   7.5689   7.6413
     8.0982   8.2546  12.3699  13.3963  15.8319  15.8421  19.0295

          k = 0.3333-0.3333 0.2482 (  5622 PWs)   bands (ev):

   -11.8906 -11.7559 -11.5044 -11.4623 -11.2915 -11.2698 -11.1813 -11.1675
   -11.1633 -11.1598  -8.7998  -8.0233  -7.7193  -7.0719   2.2297   3.0589
     4.9799   5.3638   5.7574   6.0935   6.3745   7.1700   7.4942   7.8282
     8.1175   8.3807  12.7973  13.7326  16.6129  16.6512  18.1908

          k = 0.3333-0.3333 0.4963 (  5610 PWs)   bands (ev):

   -11.9593 -11.8197 -11.6353 -11.4203 -11.2237 -11.2082 -11.1992 -11.1831
   -11.1686 -11.1606  -8.4850  -7.9662  -7.0953  -6.7905   1.6567   2.1012
     4.5144   4.8260   4.8402   5.9760   6.2554   7.6354   7.6568   7.8198
     8.0777   8.2547  13.3932  13.9255  17.1354  17.7989  18.3069

          k = 0.3333-0.3333-0.7445 (  5600 PWs)   bands (ev):

   -12.0700 -11.9549 -11.5465 -11.3705 -11.2301 -11.2282 -11.1621 -11.1604
   -11.1339 -11.1313  -8.2597  -8.0380  -6.7912  -6.6274   1.3225   1.6510
     4.2769   4.2989   4.5283   6.2871   6.3593   7.7630   7.8096   7.8620
     7.9527   8.0548  13.5687  13.8240  16.8232  17.9781  19.0030

     the Fermi energy is     8.8202 ev

!    total energy              =    -447.59577993 Ry
     Harris-Foulkes estimate   =    -447.59577993 Ry
     estimated scf accuracy    <          6.1E-21 Ry

     The total energy is the sum of the following terms:

     one-electron contribution =    -125.65573588 Ry
     hartree contribution      =     101.52125775 Ry
     xc contribution           =    -122.06134240 Ry
     ewald contribution        =    -301.40003973 Ry
     smearing contrib. (-TS)   =       0.00008034 Ry

     convergence has been achieved in  22 iterations

     Forces acting on atoms (cartesian axes, Ry/au):

     atom    1 type  1   force =     0.00000150    0.00000150    0.00000000
     atom    2 type  1   force =     0.00000470    0.00000470    0.00000000
     atom    3 type  2   force =     0.00001505   -0.00001858   -0.00000000
     atom    4 type  2   force =    -0.00001858    0.00001505    0.00000000
     atom    5 type  2   force =     0.00001549    0.00001549    0.00000000
     atom    6 type  2   force =    -0.00001817   -0.00001817    0.00000000

     Total force =     0.000048     Total SCF correction =     0.000000


     Computing stress (Cartesian axis) and pressure

          total   stress  (Ry/bohr**3)                   (kbar)     P=   -7.91
  -0.00005477  -0.00000000   0.00000000         -8.06     -0.00      0.00
  -0.00000000  -0.00005477   0.00000000         -0.00     -8.06      0.00
   0.00000000   0.00000000  -0.00005179          0.00      0.00     -7.62


     Writing output data file SnO2-epw.save
 
     init_run     :      4.25s CPU      4.46s WALL (       1 calls)
     electrons    :    226.52s CPU    228.36s WALL (       1 calls)
     forces       :      1.03s CPU      1.04s WALL (       1 calls)
     stress       :      3.16s CPU      3.18s WALL (       1 calls)

     Called by init_run:
     wfcinit      :      3.84s CPU      4.03s WALL (       1 calls)
     potinit      :      0.12s CPU      0.12s WALL (       1 calls)
     hinit0       :      0.18s CPU      0.19s WALL (       1 calls)

     Called by electrons:
     c_bands      :    193.99s CPU    195.60s WALL (      22 calls)
     sum_band     :     31.80s CPU     32.00s WALL (      22 calls)
     v_of_rho     :      0.61s CPU      0.61s WALL (      23 calls)
     mix_rho      :      0.14s CPU      0.14s WALL (      22 calls)

     Called by c_bands:
     init_us_2    :      3.83s CPU      3.81s WALL (    2444 calls)
     cegterg      :    174.89s CPU    176.37s WALL (    1144 calls)

     Called by sum_band:

     Called by *egterg:
     h_psi        :    149.80s CPU    151.20s WALL (    3162 calls)
     g_psi        :      1.70s CPU      1.72s WALL (    1966 calls)
     cdiaghg      :      7.50s CPU      7.64s WALL (    3110 calls)

     Called by h_psi:
     h_psi:pot    :    149.07s CPU    150.44s WALL (    3162 calls)
     h_psi:calbec :      8.09s CPU      8.18s WALL (    3162 calls)
     vloc_psi     :    133.54s CPU    134.78s WALL (    3162 calls)
     add_vuspsi   :      7.42s CPU      7.46s WALL (    3162 calls)

     General routines
     calbec       :      8.89s CPU      8.97s WALL (    3422 calls)
     fft          :      0.34s CPU      0.34s WALL (     255 calls)
     ffts         :      0.03s CPU      0.03s WALL (      22 calls)
     fftw         :    151.54s CPU    152.69s WALL (  200416 calls)
 
     Parallel routines
     fft_scatt_xy :     14.05s CPU     13.84s WALL (  200693 calls)
     fft_scatt_yz :     25.78s CPU     26.10s WALL (  200693 calls)
 
     PWSCF        :  3m55.47s CPU     4m 0.09s WALL

 
   This run was terminated on:   5: 5:25  10May2018            

=------------------------------------------------------------------------------=
   JOB DONE.
=------------------------------------------------------------------------------=
