
     Program PHONON v.6.2.2 starts on  8May2018 at 12:15:58 

     This program is part of the open-source Quantum ESPRESSO suite
     for quantum simulation of materials; please cite
         "P. Giannozzi et al., J. Phys.:Condens. Matter 21 395502 (2009);
         "P. Giannozzi et al., J. Phys.:Condens. Matter 29 465901 (2017);
          URL http://www.quantum-espresso.org", 
     in publications or presentations arising from this work. More details at
     http://www.quantum-espresso.org/quote

     Parallel version (MPI), running on    32 processors

     MPI processes distributed on     1 nodes
     R & G space division:  proc/nbgrp/npool/nimage =      32

     Reading data from directory:
     ./SnO2-epw.save/

     IMPORTANT: XC functional enforced from input :
     Exchange-correlation      = PBE ( 1  4  3  4 0 0)
     Any further DFT definition will be discarded
     Please, verify this is what you really want

 
     Parallelization info
     --------------------
     sticks:   dense  smooth     PW     G-vecs:    dense   smooth      PW
     Min          62      62     18                 1404     1404     223
     Max          63      63     20                 1405     1405     225
     Sum        2001    2001    593                44945    44945    7155
 

     Check: negative/imaginary core charge=   -0.000002    0.000000


     Dynamical matrices for ( 3, 3, 3)  uniform grid of q-points
     (   8 q-points):
       N         xq(1)         xq(2)         xq(3) 
       1   0.000000000   0.000000000   0.000000000
       2   0.000000000   0.000000000   0.496328851
       3   0.000000000   0.333333333   0.000000000
       4   0.000000000   0.333333333   0.496328851
       5   0.333333333   0.333333333   0.000000000
       6   0.333333333   0.333333333   0.496328851
       7   0.333333333  -0.333333333   0.000000000
       8   0.333333333  -0.333333333   0.496328851

     Calculation of q =    0.0000000   0.0000000   0.0000000

     Phonon dispersions for SnO2                                                

     bravais-lattice index     =            6
     lattice parameter (alat)  =       9.1370  a.u.
     unit-cell volume          =     512.3005 (a.u.)^3
     number of atoms/cell      =            6
     number of atomic types    =            2
     kinetic-energy cut-off    =      75.0000  Ry
     charge density cut-off    =     300.0000  Ry
     convergence threshold     =      1.0E-14
     beta                      =       0.7000
     number of iterations used =            4
     Exchange-correlation      = PBE ( 1  4  3  4 0 0)


     celldm(1)=    9.13703  celldm(2)=    1.00000  celldm(3)=    0.67160
     celldm(4)=    0.00000  celldm(5)=    0.00000  celldm(6)=    0.00000

     crystal axes: (cart. coord. in units of alat)
               a(1) = (  1.0000  0.0000  0.0000 )  
               a(2) = (  0.0000  1.0000  0.0000 )  
               a(3) = (  0.0000  0.0000  0.6716 )  

     reciprocal axes: (cart. coord. in units 2 pi/alat)
               b(1) = (  1.0000  0.0000  0.0000 )  
               b(2) = (  0.0000  1.0000  0.0000 )  
               b(3) = (  0.0000  0.0000  1.4890 )  


     Atoms inside the unit cell: 

     Cartesian axes

     site n.  atom      mass           positions (alat units)
        1     Sn 118.7100   tau(    1) = (   -0.00033   -0.00033    0.00000  )
        2     Sn 118.7100   tau(    2) = (    0.49967    0.49967    0.33580  )
        3     O   15.9990   tau(    3) = (    0.80637    0.19296    0.33580  )
        4     O   15.9990   tau(    4) = (    0.19296    0.80637    0.33580  )
        5     O   15.9990   tau(    5) = (    0.30637    0.30637    0.00000  )
        6     O   15.9990   tau(    6) = (    0.69296    0.69296    0.00000  )

     Computing dynamical matrix for 
                    q = (   0.0000000   0.0000000   0.0000000 )
 
      5 Sym.Ops. (with q -> -q+G )


     G cutoff =  634.4127  (   1405 G-vectors)     FFT grid: ( 54, 54, 36)
     number of k points=   186

     PseudoPot. # 1 for Sn read from file:
     ../../Pseudo_potentials/Sn_PBE.upf
     MD5 check sum: 78e6386ae56e929f0568ae8bf606a80c
     Pseudo is Norm-conserving + core correction, Zval = 14.0
     Generated using ONCVPSP code by D. R. Hamann
     Using radial grid of 1628 points,  6 beta functions with: 
                l(1) =   0
                l(2) =   0
                l(3) =   1
                l(4) =   1
                l(5) =   2
                l(6) =   2

     PseudoPot. # 2 for O  read from file:
     ../../Pseudo_potentials/O_PBE.upf
     MD5 check sum: 3e3f909f7470e8921608ab6b1f57bbae
     Pseudo is Norm-conserving + core correction, Zval =  6.0
     Generated using ONCVPSP code by D. R. Hamann
     Using radial grid of  936 points,  5 beta functions with: 
                l(1) =   0
                l(2) =   0
                l(3) =   1
                l(4) =   1
                l(5) =   2

     Mode symmetry, C_2v (mm2)  point group:


     Electric field:
     Dielectric constant
     Born effective charges in two ways 


     Atomic displacements:
     There are  18 irreducible representations

     Representation     1      1 modes -A_1  D_1  S_1  To be done

     Representation     2      1 modes -A_1  D_1  S_1  To be done

     Representation     3      1 modes -A_1  D_1  S_1  To be done

     Representation     4      1 modes -A_1  D_1  S_1  To be done

     Representation     5      1 modes -A_1  D_1  S_1  To be done

     Representation     6      1 modes -A_1  D_1  S_1  To be done

     Representation     7      1 modes -A_2  D_2  S_2  To be done

     Representation     8      1 modes -B_1  D_3  S_3  To be done

     Representation     9      1 modes -B_1  D_3  S_3  To be done

     Representation    10      1 modes -B_1  D_3  S_3  To be done

     Representation    11      1 modes -B_1  D_3  S_3  To be done

     Representation    12      1 modes -B_1  D_3  S_3  To be done

     Representation    13      1 modes -B_1  D_3  S_3  To be done

     Representation    14      1 modes -B_2  D_4  S_4  To be done

     Representation    15      1 modes -B_2  D_4  S_4  To be done

     Representation    16      1 modes -B_2  D_4  S_4  To be done

     Representation    17      1 modes -B_2  D_4  S_4  To be done

     Representation    18      1 modes -B_2  D_4  S_4  To be done



     Alpha used in Ewald sum =   2.7000
     PHONON       :    23.42s CPU        30.15s WALL


     Electric Fields Calculation

      iter #   1 total cpu time :   652.8 secs   av.it.:   7.6
      thresh= 1.000E-02 alpha_mix =  0.700 |ddv_scf|^2 =  1.564E-08

      iter #   2 total cpu time :   918.4 secs   av.it.:  15.1
      thresh= 1.251E-05 alpha_mix =  0.700 |ddv_scf|^2 =  2.438E-08

      iter #   3 total cpu time :  1170.7 secs   av.it.:  13.3
      thresh= 1.562E-05 alpha_mix =  0.700 |ddv_scf|^2 =  1.299E-09

      iter #   4 total cpu time :  1430.2 secs   av.it.:  14.5
      thresh= 3.604E-06 alpha_mix =  0.700 |ddv_scf|^2 =  5.530E-11

      iter #   5 total cpu time :  1683.8 secs   av.it.:  14.7
      thresh= 7.437E-07 alpha_mix =  0.700 |ddv_scf|^2 =  5.519E-12

      iter #   6 total cpu time :  1941.7 secs   av.it.:  14.2
      thresh= 2.349E-07 alpha_mix =  0.700 |ddv_scf|^2 =  5.164E-14

      iter #   7 total cpu time :  2221.7 secs   av.it.:  15.6
      thresh= 2.273E-08 alpha_mix =  0.700 |ddv_scf|^2 =  1.654E-14

      iter #   8 total cpu time :  2499.3 secs   av.it.:  14.8
      thresh= 1.286E-08 alpha_mix =  0.700 |ddv_scf|^2 =  1.583E-16

     End of electric fields calculation

          Dielectric constant in cartesian axis 

          (       4.851334434       0.000000005       0.000000000 )
          (       0.000000005       4.851334434       0.000000000 )
          (       0.000000000       0.000000000       5.106822148 )

          Effective charges (d Force / dE) in cartesian axis

           atom      1   Sn 
      Ex  (        4.18460        0.56166        0.00000 )
      Ey  (        0.56166        4.18460        0.00000 )
      Ez  (        0.00000        0.00000        4.59625 )
           atom      2   Sn 
      Ex  (        4.18460       -0.56166        0.00000 )
      Ey  (       -0.56166        4.18460        0.00000 )
      Ez  (        0.00000        0.00000        4.59625 )
           atom      3   O  
      Ex  (       -2.09227        0.79935        0.00000 )
      Ey  (        0.79933       -2.09223        0.00000 )
      Ez  (        0.00000        0.00000       -2.29831 )
           atom      4   O  
      Ex  (       -2.09223        0.79933        0.00000 )
      Ey  (        0.79935       -2.09227        0.00000 )
      Ez  (        0.00000        0.00000       -2.29831 )
           atom      5   O  
      Ex  (       -2.09224       -0.79933        0.00000 )
      Ey  (       -0.79933       -2.09224        0.00000 )
      Ez  (        0.00000        0.00000       -2.29831 )
           atom      6   O  
      Ex  (       -2.09225       -0.79934        0.00000 )
      Ey  (       -0.79934       -2.09225        0.00000 )
      Ez  (        0.00000        0.00000       -2.29831 )


     Representation #  1 mode #   1

     Self-consistent Calculation

      iter #   1 total cpu time :  2688.4 secs   av.it.:   6.8
      thresh= 1.000E-02 alpha_mix =  0.700 |ddv_scf|^2 =  8.752E-07

      iter #   2 total cpu time :  2773.5 secs   av.it.:  13.8
      thresh= 9.355E-05 alpha_mix =  0.700 |ddv_scf|^2 =  2.271E-07

      iter #   3 total cpu time :  2858.8 secs   av.it.:  13.7
      thresh= 4.766E-05 alpha_mix =  0.700 |ddv_scf|^2 =  7.652E-08

      iter #   4 total cpu time :  2956.0 secs   av.it.:  12.9
      thresh= 2.766E-05 alpha_mix =  0.700 |ddv_scf|^2 =  3.207E-09

      iter #   5 total cpu time :  3053.7 secs   av.it.:  13.6
      thresh= 5.663E-06 alpha_mix =  0.700 |ddv_scf|^2 =  2.362E-11

      iter #   6 total cpu time :  3153.0 secs   av.it.:  14.2
      thresh= 4.860E-07 alpha_mix =  0.700 |ddv_scf|^2 =  1.139E-11

      iter #   7 total cpu time :  3268.0 secs   av.it.:  13.7
      thresh= 3.374E-07 alpha_mix =  0.700 |ddv_scf|^2 =  5.066E-12

      iter #   8 total cpu time :  3357.1 secs   av.it.:  13.0
      thresh= 2.251E-07 alpha_mix =  0.700 |ddv_scf|^2 =  2.215E-13

      iter #   9 total cpu time :  3441.9 secs   av.it.:  13.6
      thresh= 4.706E-08 alpha_mix =  0.700 |ddv_scf|^2 =  7.868E-15

     End of self-consistent calculation

     Convergence has been achieved 


     Representation #  2 mode #   2

     Self-consistent Calculation

      iter #   1 total cpu time :  3501.6 secs   av.it.:   7.2
      thresh= 1.000E-02 alpha_mix =  0.700 |ddv_scf|^2 =  2.983E-06

      iter #   2 total cpu time :  3586.9 secs   av.it.:  13.3
      thresh= 1.727E-04 alpha_mix =  0.700 |ddv_scf|^2 =  1.798E-06

      iter #   3 total cpu time :  3680.1 secs   av.it.:  12.5
      thresh= 1.341E-04 alpha_mix =  0.700 |ddv_scf|^2 =  4.611E-08

      iter #   4 total cpu time :  3756.9 secs   av.it.:  13.1
      thresh= 2.147E-05 alpha_mix =  0.700 |ddv_scf|^2 =  1.742E-08

      iter #   5 total cpu time :  3844.3 secs   av.it.:  12.7
      thresh= 1.320E-05 alpha_mix =  0.700 |ddv_scf|^2 =  2.640E-11

      iter #   6 total cpu time :  3931.3 secs   av.it.:  13.9
      thresh= 5.138E-07 alpha_mix =  0.700 |ddv_scf|^2 =  4.096E-12

      iter #   7 total cpu time :  4024.7 secs   av.it.:  14.0
      thresh= 2.024E-07 alpha_mix =  0.700 |ddv_scf|^2 =  4.864E-12

      iter #   8 total cpu time :  4104.0 secs   av.it.:  13.0
      thresh= 2.205E-07 alpha_mix =  0.700 |ddv_scf|^2 =  6.536E-14

      iter #   9 total cpu time :  4195.3 secs   av.it.:  14.1
      thresh= 2.556E-08 alpha_mix =  0.700 |ddv_scf|^2 =  1.095E-14

      iter #  10 total cpu time :  4280.9 secs   av.it.:  13.8
      thresh= 1.047E-08 alpha_mix =  0.700 |ddv_scf|^2 =  6.515E-16

     End of self-consistent calculation

     Convergence has been achieved 


     Representation #  3 mode #   3

     Self-consistent Calculation

      iter #   1 total cpu time :  4347.4 secs   av.it.:   8.4
      thresh= 1.000E-02 alpha_mix =  0.700 |ddv_scf|^2 =  7.640E-06

      iter #   2 total cpu time :  4461.0 secs   av.it.:  13.9
      thresh= 2.764E-04 alpha_mix =  0.700 |ddv_scf|^2 =  7.459E-06

      iter #   3 total cpu time :  4537.9 secs   av.it.:  13.0
      thresh= 2.731E-04 alpha_mix =  0.700 |ddv_scf|^2 =  5.533E-07

      iter #   4 total cpu time :  4619.9 secs   av.it.:  12.9
      thresh= 7.438E-05 alpha_mix =  0.700 |ddv_scf|^2 =  7.529E-10

      iter #   5 total cpu time :  4707.1 secs   av.it.:  13.7
      thresh= 2.744E-06 alpha_mix =  0.700 |ddv_scf|^2 =  1.689E-11

      iter #   6 total cpu time :  4798.3 secs   av.it.:  13.6
      thresh= 4.109E-07 alpha_mix =  0.700 |ddv_scf|^2 =  5.501E-12

      iter #   7 total cpu time :  4896.0 secs   av.it.:  13.5
      thresh= 2.345E-07 alpha_mix =  0.700 |ddv_scf|^2 =  1.005E-13

      iter #   8 total cpu time :  4992.9 secs   av.it.:  14.0
      thresh= 3.171E-08 alpha_mix =  0.700 |ddv_scf|^2 =  3.367E-15

     End of self-consistent calculation

     Convergence has been achieved 


     Representation #  4 mode #   4

     Self-consistent Calculation

      iter #   1 total cpu time :  5054.3 secs   av.it.:   7.5
      thresh= 1.000E-02 alpha_mix =  0.700 |ddv_scf|^2 =  1.947E-06

      iter #   2 total cpu time :  5151.0 secs   av.it.:  13.9
      thresh= 1.396E-04 alpha_mix =  0.700 |ddv_scf|^2 =  1.085E-06

      iter #   3 total cpu time :  5232.8 secs   av.it.:  13.2
      thresh= 1.042E-04 alpha_mix =  0.700 |ddv_scf|^2 =  5.392E-08

      iter #   4 total cpu time :  5312.1 secs   av.it.:  13.5
      thresh= 2.322E-05 alpha_mix =  0.700 |ddv_scf|^2 =  1.230E-08

      iter #   5 total cpu time :  5388.5 secs   av.it.:  13.0
      thresh= 1.109E-05 alpha_mix =  0.700 |ddv_scf|^2 =  1.289E-10

      iter #   6 total cpu time :  5495.4 secs   av.it.:  14.1
      thresh= 1.136E-06 alpha_mix =  0.700 |ddv_scf|^2 =  8.987E-11

      iter #   7 total cpu time :  5596.0 secs   av.it.:  13.1
      thresh= 9.480E-07 alpha_mix =  0.700 |ddv_scf|^2 =  2.574E-12

      iter #   8 total cpu time :  5692.1 secs   av.it.:  14.1
      thresh= 1.604E-07 alpha_mix =  0.700 |ddv_scf|^2 =  3.400E-13

      iter #   9 total cpu time :  5793.6 secs   av.it.:  14.3
      thresh= 5.831E-08 alpha_mix =  0.700 |ddv_scf|^2 =  4.550E-14

      iter #  10 total cpu time :  5870.0 secs   av.it.:  13.7
      thresh= 2.133E-08 alpha_mix =  0.700 |ddv_scf|^2 =  2.305E-15

     End of self-consistent calculation

     Convergence has been achieved 


     Representation #  5 mode #   5

     Self-consistent Calculation

      iter #   1 total cpu time :  5932.6 secs   av.it.:   8.2
      thresh= 1.000E-02 alpha_mix =  0.700 |ddv_scf|^2 =  6.517E-06

      iter #   2 total cpu time :  6027.0 secs   av.it.:  13.8
      thresh= 2.553E-04 alpha_mix =  0.700 |ddv_scf|^2 =  5.603E-06

      iter #   3 total cpu time :  6108.7 secs   av.it.:  13.0
      thresh= 2.367E-04 alpha_mix =  0.700 |ddv_scf|^2 =  5.725E-07

      iter #   4 total cpu time :  6193.3 secs   av.it.:  12.9
      thresh= 7.566E-05 alpha_mix =  0.700 |ddv_scf|^2 =  7.607E-10

      iter #   5 total cpu time :  6278.2 secs   av.it.:  13.6
      thresh= 2.758E-06 alpha_mix =  0.700 |ddv_scf|^2 =  6.082E-11

      iter #   6 total cpu time :  6370.9 secs   av.it.:  13.2
      thresh= 7.799E-07 alpha_mix =  0.700 |ddv_scf|^2 =  2.365E-11

      iter #   7 total cpu time :  6457.4 secs   av.it.:  12.9
      thresh= 4.864E-07 alpha_mix =  0.700 |ddv_scf|^2 =  4.239E-13

      iter #   8 total cpu time :  6534.4 secs   av.it.:  13.1
      thresh= 6.511E-08 alpha_mix =  0.700 |ddv_scf|^2 =  5.995E-15

     End of self-consistent calculation

     Convergence has been achieved 


     Representation #  6 mode #   6

     Self-consistent Calculation

      iter #   1 total cpu time :  6593.7 secs   av.it.:   7.5
      thresh= 1.000E-02 alpha_mix =  0.700 |ddv_scf|^2 =  1.947E-06

      iter #   2 total cpu time :  6680.3 secs   av.it.:  13.9
      thresh= 1.396E-04 alpha_mix =  0.700 |ddv_scf|^2 =  1.085E-06

      iter #   3 total cpu time :  6783.7 secs   av.it.:  13.2
      thresh= 1.042E-04 alpha_mix =  0.700 |ddv_scf|^2 =  5.393E-08

      iter #   4 total cpu time :  6871.2 secs   av.it.:  13.5
      thresh= 2.322E-05 alpha_mix =  0.700 |ddv_scf|^2 =  1.230E-08

      iter #   5 total cpu time :  6950.9 secs   av.it.:  13.0
      thresh= 1.109E-05 alpha_mix =  0.700 |ddv_scf|^2 =  1.290E-10

      iter #   6 total cpu time :  7030.9 secs   av.it.:  14.1
      thresh= 1.136E-06 alpha_mix =  0.700 |ddv_scf|^2 =  8.986E-11

      iter #   7 total cpu time :  7115.9 secs   av.it.:  13.1
      thresh= 9.480E-07 alpha_mix =  0.700 |ddv_scf|^2 =  2.574E-12

      iter #   8 total cpu time :  7219.8 secs   av.it.:  14.1
      thresh= 1.604E-07 alpha_mix =  0.700 |ddv_scf|^2 =  3.400E-13

      iter #   9 total cpu time :  7320.7 secs   av.it.:  14.3
      thresh= 5.831E-08 alpha_mix =  0.700 |ddv_scf|^2 =  4.550E-14

      iter #  10 total cpu time :  7406.0 secs   av.it.:  13.7
      thresh= 2.133E-08 alpha_mix =  0.700 |ddv_scf|^2 =  2.304E-15

     End of self-consistent calculation

     Convergence has been achieved 


     Representation #  7 mode #   7

     Self-consistent Calculation

      iter #   1 total cpu time :  7493.6 secs   av.it.:   6.6
      thresh= 1.000E-02 alpha_mix =  0.700 |ddv_scf|^2 =  4.459E-07

      iter #   2 total cpu time :  7598.6 secs   av.it.:  13.3
      thresh= 6.678E-05 alpha_mix =  0.700 |ddv_scf|^2 =  5.496E-09

      iter #   3 total cpu time :  7716.6 secs   av.it.:  13.4
      thresh= 7.414E-06 alpha_mix =  0.700 |ddv_scf|^2 =  6.317E-11

      iter #   4 total cpu time :  7792.6 secs   av.it.:  13.3
      thresh= 7.948E-07 alpha_mix =  0.700 |ddv_scf|^2 =  5.363E-13

      iter #   5 total cpu time :  7876.3 secs   av.it.:  13.4
      thresh= 7.323E-08 alpha_mix =  0.700 |ddv_scf|^2 =  3.014E-15

     End of self-consistent calculation

     Convergence has been achieved 


     Representation #  8 mode #   8

     Self-consistent Calculation

      iter #   1 total cpu time :  7940.8 secs   av.it.:   7.0
      thresh= 1.000E-02 alpha_mix =  0.700 |ddv_scf|^2 =  1.552E-06

      iter #   2 total cpu time :  8028.5 secs   av.it.:  13.5
      thresh= 1.246E-04 alpha_mix =  0.700 |ddv_scf|^2 =  1.974E-07

      iter #   3 total cpu time :  8131.5 secs   av.it.:  13.4
      thresh= 4.443E-05 alpha_mix =  0.700 |ddv_scf|^2 =  1.522E-08

      iter #   4 total cpu time :  8218.6 secs   av.it.:  13.1
      thresh= 1.234E-05 alpha_mix =  0.700 |ddv_scf|^2 =  1.842E-09

      iter #   5 total cpu time :  8305.0 secs   av.it.:  13.1
      thresh= 4.292E-06 alpha_mix =  0.700 |ddv_scf|^2 =  3.222E-11

      iter #   6 total cpu time :  8390.3 secs   av.it.:  14.2
      thresh= 5.676E-07 alpha_mix =  0.700 |ddv_scf|^2 =  2.850E-12

      iter #   7 total cpu time :  8485.7 secs   av.it.:  13.9
      thresh= 1.688E-07 alpha_mix =  0.700 |ddv_scf|^2 =  6.349E-14

      iter #   8 total cpu time :  8570.8 secs   av.it.:  13.7
      thresh= 2.520E-08 alpha_mix =  0.700 |ddv_scf|^2 =  2.408E-15

     End of self-consistent calculation

     Convergence has been achieved 


     Representation #  9 mode #   9

     Self-consistent Calculation

      iter #   1 total cpu time :  8634.6 secs   av.it.:   8.4
      thresh= 1.000E-02 alpha_mix =  0.700 |ddv_scf|^2 =  7.640E-06

      iter #   2 total cpu time :  8714.2 secs   av.it.:  13.9
      thresh= 2.764E-04 alpha_mix =  0.700 |ddv_scf|^2 =  7.459E-06

      iter #   3 total cpu time :  8805.9 secs   av.it.:  13.0
      thresh= 2.731E-04 alpha_mix =  0.700 |ddv_scf|^2 =  5.533E-07

      iter #   4 total cpu time :  8889.8 secs   av.it.:  12.9
      thresh= 7.438E-05 alpha_mix =  0.700 |ddv_scf|^2 =  7.529E-10

      iter #   5 total cpu time :  8975.0 secs   av.it.:  13.7
      thresh= 2.744E-06 alpha_mix =  0.700 |ddv_scf|^2 =  1.689E-11

      iter #   6 total cpu time :  9054.1 secs   av.it.:  13.6
      thresh= 4.109E-07 alpha_mix =  0.700 |ddv_scf|^2 =  5.501E-12

      iter #   7 total cpu time :  9152.2 secs   av.it.:  13.5
      thresh= 2.345E-07 alpha_mix =  0.700 |ddv_scf|^2 =  1.004E-13

      iter #   8 total cpu time :  9233.2 secs   av.it.:  13.8
      thresh= 3.169E-08 alpha_mix =  0.700 |ddv_scf|^2 =  2.844E-15

     End of self-consistent calculation

     Convergence has been achieved 


     Representation # 10 mode #  10

     Self-consistent Calculation

      iter #   1 total cpu time :  9299.4 secs   av.it.:   7.0
      thresh= 1.000E-02 alpha_mix =  0.700 |ddv_scf|^2 =  1.238E-06

      iter #   2 total cpu time :  9389.9 secs   av.it.:  13.7
      thresh= 1.112E-04 alpha_mix =  0.700 |ddv_scf|^2 =  2.029E-07

      iter #   3 total cpu time :  9469.8 secs   av.it.:  13.8
      thresh= 4.504E-05 alpha_mix =  0.700 |ddv_scf|^2 =  5.047E-08

      iter #   4 total cpu time :  9562.0 secs   av.it.:  12.9
      thresh= 2.247E-05 alpha_mix =  0.700 |ddv_scf|^2 =  1.899E-09

      iter #   5 total cpu time :  9645.8 secs   av.it.:  13.6
      thresh= 4.357E-06 alpha_mix =  0.700 |ddv_scf|^2 =  4.756E-11

      iter #   6 total cpu time :  9733.0 secs   av.it.:  14.1
      thresh= 6.896E-07 alpha_mix =  0.700 |ddv_scf|^2 =  3.238E-12

      iter #   7 total cpu time :  9813.8 secs   av.it.:  13.6
      thresh= 1.799E-07 alpha_mix =  0.700 |ddv_scf|^2 =  1.281E-13

      iter #   8 total cpu time :  9920.7 secs   av.it.:  13.7
      thresh= 3.579E-08 alpha_mix =  0.700 |ddv_scf|^2 =  2.038E-15

     End of self-consistent calculation

     Convergence has been achieved 


     Representation # 11 mode #  11

     Self-consistent Calculation

      iter #   1 total cpu time :  9989.2 secs   av.it.:   7.4
      thresh= 1.000E-02 alpha_mix =  0.700 |ddv_scf|^2 =  9.617E-07

      iter #   2 total cpu time : 10093.3 secs   av.it.:  14.1
      thresh= 9.807E-05 alpha_mix =  0.700 |ddv_scf|^2 =  3.580E-07

      iter #   3 total cpu time : 10180.8 secs   av.it.:  13.6
      thresh= 5.983E-05 alpha_mix =  0.700 |ddv_scf|^2 =  8.660E-08

      iter #   4 total cpu time : 10256.9 secs   av.it.:  12.7
      thresh= 2.943E-05 alpha_mix =  0.700 |ddv_scf|^2 =  2.191E-09

      iter #   5 total cpu time : 10363.7 secs   av.it.:  13.7
      thresh= 4.681E-06 alpha_mix =  0.700 |ddv_scf|^2 =  1.991E-11

      iter #   6 total cpu time : 10455.9 secs   av.it.:  14.2
      thresh= 4.463E-07 alpha_mix =  0.700 |ddv_scf|^2 =  2.914E-12

      iter #   7 total cpu time : 10547.0 secs   av.it.:  13.9
      thresh= 1.707E-07 alpha_mix =  0.700 |ddv_scf|^2 =  1.962E-13

      iter #   8 total cpu time : 10631.1 secs   av.it.:  13.7
      thresh= 4.430E-08 alpha_mix =  0.700 |ddv_scf|^2 =  4.349E-15

     End of self-consistent calculation

     Convergence has been achieved 


     Representation # 12 mode #  12

     Self-consistent Calculation

      iter #   1 total cpu time : 10686.9 secs   av.it.:   7.0
      thresh= 1.000E-02 alpha_mix =  0.700 |ddv_scf|^2 =  1.237E-06

      iter #   2 total cpu time : 10779.2 secs   av.it.:  13.7
      thresh= 1.112E-04 alpha_mix =  0.700 |ddv_scf|^2 =  2.029E-07

      iter #   3 total cpu time : 10860.9 secs   av.it.:  13.8
      thresh= 4.504E-05 alpha_mix =  0.700 |ddv_scf|^2 =  5.046E-08

      iter #   4 total cpu time : 10944.0 secs   av.it.:  12.9
      thresh= 2.246E-05 alpha_mix =  0.700 |ddv_scf|^2 =  1.899E-09

      iter #   5 total cpu time : 11026.0 secs   av.it.:  13.6
      thresh= 4.358E-06 alpha_mix =  0.700 |ddv_scf|^2 =  4.756E-11

      iter #   6 total cpu time : 11104.6 secs   av.it.:  14.1
      thresh= 6.897E-07 alpha_mix =  0.700 |ddv_scf|^2 =  3.237E-12

      iter #   7 total cpu time : 11197.9 secs   av.it.:  13.6
      thresh= 1.799E-07 alpha_mix =  0.700 |ddv_scf|^2 =  1.281E-13

      iter #   8 total cpu time : 11275.4 secs   av.it.:  13.7
      thresh= 3.579E-08 alpha_mix =  0.700 |ddv_scf|^2 =  2.038E-15

     End of self-consistent calculation

     Convergence has been achieved 


     Representation # 13 mode #  13

     Self-consistent Calculation

      iter #   1 total cpu time : 11341.3 secs   av.it.:   8.2
      thresh= 1.000E-02 alpha_mix =  0.700 |ddv_scf|^2 =  6.517E-06

      iter #   2 total cpu time : 11428.0 secs   av.it.:  13.8
      thresh= 2.553E-04 alpha_mix =  0.700 |ddv_scf|^2 =  5.603E-06

      iter #   3 total cpu time : 11528.6 secs   av.it.:  13.0
      thresh= 2.367E-04 alpha_mix =  0.700 |ddv_scf|^2 =  5.725E-07

      iter #   4 total cpu time : 11605.9 secs   av.it.:  12.9
      thresh= 7.566E-05 alpha_mix =  0.700 |ddv_scf|^2 =  7.607E-10

      iter #   5 total cpu time : 11698.3 secs   av.it.:  13.6
      thresh= 2.758E-06 alpha_mix =  0.700 |ddv_scf|^2 =  6.082E-11

      iter #   6 total cpu time : 11803.1 secs   av.it.:  13.2
      thresh= 7.799E-07 alpha_mix =  0.700 |ddv_scf|^2 =  2.365E-11

      iter #   7 total cpu time : 11891.7 secs   av.it.:  12.8
      thresh= 4.864E-07 alpha_mix =  0.700 |ddv_scf|^2 =  4.239E-13

      iter #   8 total cpu time : 11994.5 secs   av.it.:  13.1
      thresh= 6.511E-08 alpha_mix =  0.700 |ddv_scf|^2 =  5.879E-15

     End of self-consistent calculation

     Convergence has been achieved 


     Representation # 14 mode #  14

     Self-consistent Calculation

      iter #   1 total cpu time : 12056.5 secs   av.it.:   7.8
      thresh= 1.000E-02 alpha_mix =  0.700 |ddv_scf|^2 =  2.241E-06

      iter #   2 total cpu time : 12165.6 secs   av.it.:  13.7
      thresh= 1.497E-04 alpha_mix =  0.700 |ddv_scf|^2 =  4.214E-07

      iter #   3 total cpu time : 12261.1 secs   av.it.:  13.4
      thresh= 6.492E-05 alpha_mix =  0.700 |ddv_scf|^2 =  1.287E-09

      iter #   4 total cpu time : 12358.6 secs   av.it.:  13.5
      thresh= 3.588E-06 alpha_mix =  0.700 |ddv_scf|^2 =  9.740E-11

      iter #   5 total cpu time : 12454.3 secs   av.it.:  13.5
      thresh= 9.869E-07 alpha_mix =  0.700 |ddv_scf|^2 =  2.015E-12

      iter #   6 total cpu time : 12534.7 secs   av.it.:  13.3
      thresh= 1.420E-07 alpha_mix =  0.700 |ddv_scf|^2 =  3.832E-14

      iter #   7 total cpu time : 12636.4 secs   av.it.:  13.6
      thresh= 1.958E-08 alpha_mix =  0.700 |ddv_scf|^2 =  1.471E-15

     End of self-consistent calculation

     Convergence has been achieved 


     Representation # 15 mode #  15

     Self-consistent Calculation

      iter #   1 total cpu time : 12691.5 secs   av.it.:   7.0
      thresh= 1.000E-02 alpha_mix =  0.700 |ddv_scf|^2 =  6.468E-07

      iter #   2 total cpu time : 12786.1 secs   av.it.:  13.7
      thresh= 8.042E-05 alpha_mix =  0.700 |ddv_scf|^2 =  5.624E-08

      iter #   3 total cpu time : 12879.7 secs   av.it.:  13.7
      thresh= 2.372E-05 alpha_mix =  0.700 |ddv_scf|^2 =  1.404E-09

      iter #   4 total cpu time : 12969.0 secs   av.it.:  13.5
      thresh= 3.747E-06 alpha_mix =  0.700 |ddv_scf|^2 =  1.586E-11

      iter #   5 total cpu time : 13057.7 secs   av.it.:  13.7
      thresh= 3.982E-07 alpha_mix =  0.700 |ddv_scf|^2 =  8.905E-13

      iter #   6 total cpu time : 13141.1 secs   av.it.:  13.3
      thresh= 9.437E-08 alpha_mix =  0.700 |ddv_scf|^2 =  2.801E-14

      iter #   7 total cpu time : 13223.1 secs   av.it.:  13.1
      thresh= 1.674E-08 alpha_mix =  0.700 |ddv_scf|^2 =  2.262E-15

     End of self-consistent calculation

     Convergence has been achieved 


     Representation # 16 mode #  16

     Self-consistent Calculation

      iter #   1 total cpu time : 13284.5 secs   av.it.:   7.0
      thresh= 1.000E-02 alpha_mix =  0.700 |ddv_scf|^2 =  5.463E-07

      iter #   2 total cpu time : 13375.7 secs   av.it.:  14.0
      thresh= 7.391E-05 alpha_mix =  0.700 |ddv_scf|^2 =  3.088E-08

      iter #   3 total cpu time : 13470.7 secs   av.it.:  14.1
      thresh= 1.757E-05 alpha_mix =  0.700 |ddv_scf|^2 =  1.332E-09

      iter #   4 total cpu time : 13546.9 secs   av.it.:  13.8
      thresh= 3.650E-06 alpha_mix =  0.700 |ddv_scf|^2 =  1.574E-11

      iter #   5 total cpu time : 13654.3 secs   av.it.:  13.9
      thresh= 3.967E-07 alpha_mix =  0.700 |ddv_scf|^2 =  5.222E-13

      iter #   6 total cpu time : 13735.9 secs   av.it.:  13.7
      thresh= 7.226E-08 alpha_mix =  0.700 |ddv_scf|^2 =  2.833E-14

      iter #   7 total cpu time : 13828.3 secs   av.it.:  13.8
      thresh= 1.683E-08 alpha_mix =  0.700 |ddv_scf|^2 =  2.112E-15

     End of self-consistent calculation

     Convergence has been achieved 


     Representation # 17 mode #  17

     Self-consistent Calculation

      iter #   1 total cpu time : 13911.9 secs   av.it.:   7.8
      thresh= 1.000E-02 alpha_mix =  0.700 |ddv_scf|^2 =  2.241E-06

      iter #   2 total cpu time : 14010.1 secs   av.it.:  13.7
      thresh= 1.497E-04 alpha_mix =  0.700 |ddv_scf|^2 =  4.214E-07

      iter #   3 total cpu time : 14091.3 secs   av.it.:  13.4
      thresh= 6.492E-05 alpha_mix =  0.700 |ddv_scf|^2 =  1.287E-09

      iter #   4 total cpu time : 14173.8 secs   av.it.:  13.5
      thresh= 3.588E-06 alpha_mix =  0.700 |ddv_scf|^2 =  9.740E-11

      iter #   5 total cpu time : 14255.0 secs   av.it.:  13.5
      thresh= 9.869E-07 alpha_mix =  0.700 |ddv_scf|^2 =  2.015E-12

      iter #   6 total cpu time : 14363.1 secs   av.it.:  13.3
      thresh= 1.420E-07 alpha_mix =  0.700 |ddv_scf|^2 =  3.832E-14

      iter #   7 total cpu time : 14448.2 secs   av.it.:  13.6
      thresh= 1.958E-08 alpha_mix =  0.700 |ddv_scf|^2 =  1.471E-15

     End of self-consistent calculation

     Convergence has been achieved 


     Representation # 18 mode #  18

     Self-consistent Calculation

      iter #   1 total cpu time : 14512.1 secs   av.it.:   7.0
      thresh= 1.000E-02 alpha_mix =  0.700 |ddv_scf|^2 =  5.463E-07

      iter #   2 total cpu time : 14674.0 secs   av.it.:  14.0
      thresh= 7.391E-05 alpha_mix =  0.700 |ddv_scf|^2 =  3.088E-08

      iter #   3 total cpu time : 14765.6 secs   av.it.:  14.1
      thresh= 1.757E-05 alpha_mix =  0.700 |ddv_scf|^2 =  1.332E-09

      iter #   4 total cpu time : 14863.5 secs   av.it.:  13.8
      thresh= 3.650E-06 alpha_mix =  0.700 |ddv_scf|^2 =  1.574E-11

      iter #   5 total cpu time : 14962.0 secs   av.it.:  13.9
      thresh= 3.967E-07 alpha_mix =  0.700 |ddv_scf|^2 =  5.222E-13

      iter #   6 total cpu time : 15040.3 secs   av.it.:  13.7
      thresh= 7.226E-08 alpha_mix =  0.700 |ddv_scf|^2 =  2.833E-14

      iter #   7 total cpu time : 15121.4 secs   av.it.:  13.8
      thresh= 1.683E-08 alpha_mix =  0.700 |ddv_scf|^2 =  2.112E-15

     End of self-consistent calculation

     Convergence has been achieved 
 
     Number of q in the star =    1
     List of q in the star:
          1   0.000000000   0.000000000   0.000000000

          Dielectric constant in cartesian axis 

          (       4.851334434       0.000000005       0.000000000 )
          (       0.000000005       4.851334434       0.000000000 )
          (       0.000000000       0.000000000       5.106822148 )

          Effective charges (d Force / dE) in cartesian axis

           atom      1   Sn 
      Ex  (        4.18460        0.56166        0.00000 )
      Ey  (        0.56166        4.18460        0.00000 )
      Ez  (        0.00000        0.00000        4.59625 )
           atom      2   Sn 
      Ex  (        4.18460       -0.56166        0.00000 )
      Ey  (       -0.56166        4.18460        0.00000 )
      Ez  (        0.00000        0.00000        4.59625 )
           atom      3   O  
      Ex  (       -2.09227        0.79935        0.00000 )
      Ey  (        0.79933       -2.09223        0.00000 )
      Ez  (        0.00000        0.00000       -2.29831 )
           atom      4   O  
      Ex  (       -2.09223        0.79933        0.00000 )
      Ey  (        0.79935       -2.09227        0.00000 )
      Ez  (        0.00000        0.00000       -2.29831 )
           atom      5   O  
      Ex  (       -2.09224       -0.79933        0.00000 )
      Ey  (       -0.79933       -2.09224        0.00000 )
      Ez  (        0.00000        0.00000       -2.29831 )
           atom      6   O  
      Ex  (       -2.09225       -0.79934        0.00000 )
      Ey  (       -0.79934       -2.09225        0.00000 )
      Ez  (        0.00000        0.00000       -2.29831 )

          Effective charges (d P / du) in cartesian axis 

           atom      1   Sn 
      Px  (        4.18436        0.56222        0.00000 )
      Py  (        0.56222        4.18436        0.00000 )
      Pz  (        0.00000        0.00000        4.59641 )
           atom      2   Sn 
      Px  (        4.18436       -0.56222        0.00000 )
      Py  (       -0.56222        4.18436        0.00000 )
      Pz  (        0.00000        0.00000        4.59641 )
           atom      3   O  
      Px  (       -2.09212        0.79929        0.00000 )
      Py  (        0.79930       -2.09216        0.00000 )
      Pz  (        0.00000        0.00000       -2.29799 )
           atom      4   O  
      Px  (       -2.09216        0.79930        0.00000 )
      Py  (        0.79929       -2.09212        0.00000 )
      Pz  (        0.00000        0.00000       -2.29799 )
           atom      5   O  
      Px  (       -2.09215       -0.79947        0.00000 )
      Py  (       -0.79947       -2.09215        0.00000 )
      Pz  (        0.00000        0.00000       -2.29800 )
           atom      6   O  
      Px  (       -2.09214       -0.79946        0.00000 )
      Py  (       -0.79946       -2.09214        0.00000 )
      Pz  (        0.00000        0.00000       -2.29800 )

     Diagonalizing the dynamical matrix

     q = (    0.000000000   0.000000000   0.000000000 ) 

 **************************************************************************
     freq (    1) =      -0.576708 [THz] =     -19.236904 [cm-1]
     freq (    2) =      -0.538838 [THz] =     -17.973709 [cm-1]
     freq (    3) =       0.727121 [THz] =      24.254142 [cm-1]
     freq (    4) =       2.975561 [THz] =      99.254033 [cm-1]
     freq (    5) =       4.238272 [THz] =     141.373522 [cm-1]
     freq (    6) =       6.393450 [THz] =     213.262536 [cm-1]
     freq (    7) =       6.417695 [THz] =     214.071259 [cm-1]
     freq (    8) =       7.785641 [THz] =     259.701031 [cm-1]
     freq (    9) =       7.796926 [THz] =     260.077441 [cm-1]
     freq (   10) =      10.039335 [THz] =     334.876177 [cm-1]
     freq (   11) =      13.091064 [THz] =     436.670887 [cm-1]
     freq (   12) =      13.288688 [THz] =     443.262909 [cm-1]
     freq (   13) =      13.301309 [THz] =     443.683901 [cm-1]
     freq (   14) =      15.970636 [THz] =     532.723066 [cm-1]
     freq (   15) =      16.445904 [THz] =     548.576308 [cm-1]
     freq (   16) =      16.449399 [THz] =     548.692888 [cm-1]
     freq (   17) =      17.498430 [THz] =     583.684787 [cm-1]
     freq (   18) =      21.132572 [THz] =     704.906731 [cm-1]
 **************************************************************************

     Mode symmetry, C_2v (mm2)  point group:

     freq (  1 -  1) =        -19.2  [cm-1]   --> B_1  D_3  S_3   I+R
     freq (  2 -  2) =        -18.0  [cm-1]   --> A_1  D_1  S_1   I+R
     freq (  3 -  3) =         24.3  [cm-1]   --> B_2  D_4  S_4   I+R
     freq (  4 -  4) =         99.3  [cm-1]   --> B_1  D_3  S_3   I+R
     freq (  5 -  5) =        141.4  [cm-1]   --> B_2  D_4  S_4   I+R
     freq (  6 -  6) =        213.3  [cm-1]   --> A_1  D_1  S_1   I+R
     freq (  7 -  7) =        214.1  [cm-1]   --> B_1  D_3  S_3   I+R
     freq (  8 -  8) =        259.7  [cm-1]   --> A_1  D_1  S_1   I+R
     freq (  9 -  9) =        260.1  [cm-1]   --> B_1  D_3  S_3   I+R
     freq ( 10 - 10) =        334.9  [cm-1]   --> B_1  D_3  S_3   I+R
     freq ( 11 - 11) =        436.7  [cm-1]   --> B_2  D_4  S_4   I+R
     freq ( 12 - 12) =        443.3  [cm-1]   --> A_2  D_2  S_2   R  
     freq ( 13 - 13) =        443.7  [cm-1]   --> B_2  D_4  S_4   I+R
     freq ( 14 - 14) =        532.7  [cm-1]   --> B_2  D_4  S_4   I+R
     freq ( 15 - 15) =        548.6  [cm-1]   --> A_1  D_1  S_1   I+R
     freq ( 16 - 16) =        548.7  [cm-1]   --> B_1  D_3  S_3   I+R
     freq ( 17 - 17) =        583.7  [cm-1]   --> A_1  D_1  S_1   I+R
     freq ( 18 - 18) =        704.9  [cm-1]   --> A_1  D_1  S_1   I+R

     Calculation of q =    0.0000000   0.0000000   0.4963289
 
     Parallelization info
     --------------------
     sticks:   dense  smooth     PW     G-vecs:    dense   smooth      PW
     Min          62      62     18                 1404     1404     235
     Max          63      63     19                 1405     1405     239
     Sum        2001    2001    601                44945    44945    7563
 

     Title: 
     Phonon dispersions for SnO2                                                


     bravais-lattice index     =            6
     lattice parameter (alat)  =       9.1370  a.u.
     unit-cell volume          =     512.3005 (a.u.)^3
     number of atoms/cell      =            6
     number of atomic types    =            2
     number of electrons       =        52.00
     number of Kohn-Sham states=           26
     kinetic-energy cutoff     =      75.0000  Ry
     charge density cutoff     =     300.0000  Ry
     Exchange-correlation      = PBE ( 1  4  3  4 0 0)

     celldm(1)=   9.137033  celldm(2)=   1.000000  celldm(3)=   0.671598
     celldm(4)=   0.000000  celldm(5)=   0.000000  celldm(6)=   0.000000

     crystal axes: (cart. coord. in units of alat)
               a(1) = (   1.000000   0.000000   0.000000 )  
               a(2) = (   0.000000   1.000000   0.000000 )  
               a(3) = (   0.000000   0.000000   0.671598 )  

     reciprocal axes: (cart. coord. in units 2 pi/alat)
               b(1) = (  1.000000  0.000000  0.000000 )  
               b(2) = (  0.000000  1.000000  0.000000 )  
               b(3) = (  0.000000  0.000000  1.488987 )  


     PseudoPot. # 1 for Sn read from file:
     ../../Pseudo_potentials/Sn_PBE.upf
     MD5 check sum: 78e6386ae56e929f0568ae8bf606a80c
     Pseudo is Norm-conserving + core correction, Zval = 14.0
     Generated using ONCVPSP code by D. R. Hamann
     Using radial grid of 1628 points,  6 beta functions with: 
                l(1) =   0
                l(2) =   0
                l(3) =   1
                l(4) =   1
                l(5) =   2
                l(6) =   2

     PseudoPot. # 2 for O  read from file:
     ../../Pseudo_potentials/O_PBE.upf
     MD5 check sum: 3e3f909f7470e8921608ab6b1f57bbae
     Pseudo is Norm-conserving + core correction, Zval =  6.0
     Generated using ONCVPSP code by D. R. Hamann
     Using radial grid of  936 points,  5 beta functions with: 
                l(1) =   0
                l(2) =   0
                l(3) =   1
                l(4) =   1
                l(5) =   2

     atomic species   valence    mass     pseudopotential
        Sn            14.00   118.71000     Sn( 1.00)
        O              6.00    15.99900     O ( 1.00)

      4 Sym. Ops. (no inversion) found



   Cartesian axes

     site n.     atom                  positions (alat units)
         1           Sn  tau(   1) = (  -0.0003320  -0.0003320   0.0000000  )
         2           Sn  tau(   2) = (   0.4996675   0.4996675   0.3357989  )
         3           O   tau(   3) = (   0.8063692   0.1929618   0.3357989  )
         4           O   tau(   4) = (   0.1929618   0.8063692   0.3357989  )
         5           O   tau(   5) = (   0.3063705   0.3063705   0.0000000  )
         6           O   tau(   6) = (   0.6929630   0.6929630   0.0000000  )

     number of k points=  1100

     Number of k-points >= 100: set verbosity='high' to print them.

     Dense  grid:    44945 G-vectors     FFT dimensions: (  54,  54,  36)

     Estimated max dynamical RAM per process >       5.68 MB

     Estimated total dynamical RAM >     181.61 MB

     Check: negative/imaginary core charge=   -0.000002    0.000000

     The potential is recalculated from file :
     ./_ph0/SnO2-epw.save/charge-density.dat

     Starting wfc are   34 atomic wfcs

     Band Structure Calculation
     Davidson diagonalization with overlap

     ethr =  1.92E-11,  avg # of iterations = 12.2

     total cpu time spent up to now is      444.9 secs

     End of band structure calculation

     Number of k-points >= 100: set verbosity='high' to print the bands.

     highest occupied level (ev):     8.9024

     Writing output data file SnO2-epw.save

     Phonon dispersions for SnO2                                                

     bravais-lattice index     =            6
     lattice parameter (alat)  =       9.1370  a.u.
     unit-cell volume          =     512.3005 (a.u.)^3
     number of atoms/cell      =            6
     number of atomic types    =            2
     kinetic-energy cut-off    =      75.0000  Ry
     charge density cut-off    =     300.0000  Ry
     convergence threshold     =      1.0E-14
     beta                      =       0.7000
     number of iterations used =            4
     Exchange-correlation      = PBE ( 1  4  3  4 0 0)


     celldm(1)=    9.13703  celldm(2)=    1.00000  celldm(3)=    0.67160
     celldm(4)=    0.00000  celldm(5)=    0.00000  celldm(6)=    0.00000

     crystal axes: (cart. coord. in units of alat)
               a(1) = (  1.0000  0.0000  0.0000 )  
               a(2) = (  0.0000  1.0000  0.0000 )  
               a(3) = (  0.0000  0.0000  0.6716 )  

     reciprocal axes: (cart. coord. in units 2 pi/alat)
               b(1) = (  1.0000  0.0000  0.0000 )  
               b(2) = (  0.0000  1.0000  0.0000 )  
               b(3) = (  0.0000  0.0000  1.4890 )  


     Atoms inside the unit cell: 

     Cartesian axes

     site n.  atom      mass           positions (alat units)
        1     Sn 118.7100   tau(    1) = (   -0.00033   -0.00033    0.00000  )
        2     Sn 118.7100   tau(    2) = (    0.49967    0.49967    0.33580  )
        3     O   15.9990   tau(    3) = (    0.80637    0.19296    0.33580  )
        4     O   15.9990   tau(    4) = (    0.19296    0.80637    0.33580  )
        5     O   15.9990   tau(    5) = (    0.30637    0.30637    0.00000  )
        6     O   15.9990   tau(    6) = (    0.69296    0.69296    0.00000  )

     Computing dynamical matrix for 
                    q = (   0.0000000   0.0000000   0.4963289 )
 
      2 Sym.Ops. (no q -> -q+G )


     G cutoff =  634.4127  (   1405 G-vectors)     FFT grid: ( 54, 54, 36)
     number of k points=  1100

     PseudoPot. # 1 for Sn read from file:
     ../../Pseudo_potentials/Sn_PBE.upf
     MD5 check sum: 78e6386ae56e929f0568ae8bf606a80c
     Pseudo is Norm-conserving + core correction, Zval = 14.0
     Generated using ONCVPSP code by D. R. Hamann
     Using radial grid of 1628 points,  6 beta functions with: 
                l(1) =   0
                l(2) =   0
                l(3) =   1
                l(4) =   1
                l(5) =   2
                l(6) =   2

     PseudoPot. # 2 for O  read from file:
     ../../Pseudo_potentials/O_PBE.upf
     MD5 check sum: 3e3f909f7470e8921608ab6b1f57bbae
     Pseudo is Norm-conserving + core correction, Zval =  6.0
     Generated using ONCVPSP code by D. R. Hamann
     Using radial grid of  936 points,  5 beta functions with: 
                l(1) =   0
                l(2) =   0
                l(3) =   1
                l(4) =   1
                l(5) =   2

     Mode symmetry, C_s (m)     point group:


     Atomic displacements:
     There are  18 irreducible representations

     Representation     1      1 modes -A'  To be done

     Representation     2      1 modes -A'  To be done

     Representation     3      1 modes -A'  To be done

     Representation     4      1 modes -A'  To be done

     Representation     5      1 modes -A'  To be done

     Representation     6      1 modes -A'  To be done

     Representation     7      1 modes -A'  To be done

     Representation     8      1 modes -A'  To be done

     Representation     9      1 modes -A'  To be done

     Representation    10      1 modes -A'  To be done

     Representation    11      1 modes -A'  To be done

     Representation    12      1 modes -A''  To be done

     Representation    13      1 modes -A''  To be done

     Representation    14      1 modes -A''  To be done

     Representation    15      1 modes -A''  To be done

     Representation    16      1 modes -A''  To be done

     Representation    17      1 modes -A''  To be done

     Representation    18      1 modes -A''  To be done



     Alpha used in Ewald sum =   2.7000
     PHONON       :     4h12m CPU        4h20m WALL



     Representation #  1 mode #   1

     Self-consistent Calculation

      iter #   1 total cpu time : 15784.9 secs   av.it.:   7.9
      thresh= 1.000E-02 alpha_mix =  0.700 |ddv_scf|^2 =  1.591E-05

      iter #   2 total cpu time : 16062.2 secs   av.it.:  13.3
      thresh= 3.988E-04 alpha_mix =  0.700 |ddv_scf|^2 =  4.967E-05

      iter #   3 total cpu time : 16299.4 secs   av.it.:  11.6
      thresh= 7.048E-04 alpha_mix =  0.700 |ddv_scf|^2 =  3.474E-07

      iter #   4 total cpu time : 16535.8 secs   av.it.:  13.3
      thresh= 5.894E-05 alpha_mix =  0.700 |ddv_scf|^2 =  4.046E-08

      iter #   5 total cpu time : 16779.7 secs   av.it.:  12.9
      thresh= 2.012E-05 alpha_mix =  0.700 |ddv_scf|^2 =  1.044E-09

      iter #   6 total cpu time : 17030.0 secs   av.it.:  13.5
      thresh= 3.231E-06 alpha_mix =  0.700 |ddv_scf|^2 =  2.091E-10

      iter #   7 total cpu time : 17297.2 secs   av.it.:  13.6
      thresh= 1.446E-06 alpha_mix =  0.700 |ddv_scf|^2 =  3.302E-11

      iter #   8 total cpu time : 17538.0 secs   av.it.:  13.1
      thresh= 5.747E-07 alpha_mix =  0.700 |ddv_scf|^2 =  2.161E-13

      iter #   9 total cpu time : 17836.1 secs   av.it.:  14.7
      thresh= 4.649E-08 alpha_mix =  0.700 |ddv_scf|^2 =  5.100E-14

      iter #  10 total cpu time : 18089.1 secs   av.it.:  14.5
      thresh= 2.258E-08 alpha_mix =  0.700 |ddv_scf|^2 =  3.552E-14

      iter #  11 total cpu time : 18323.2 secs   av.it.:  13.7
      thresh= 1.885E-08 alpha_mix =  0.700 |ddv_scf|^2 =  2.115E-14

      iter #  12 total cpu time : 18595.3 secs   av.it.:  13.1
      thresh= 1.454E-08 alpha_mix =  0.700 |ddv_scf|^2 =  4.716E-15

     End of self-consistent calculation

     Convergence has been achieved 


     Representation #  2 mode #   2

     Self-consistent Calculation

      iter #   1 total cpu time : 18776.7 secs   av.it.:   8.9
      thresh= 1.000E-02 alpha_mix =  0.700 |ddv_scf|^2 =  4.641E-05

      iter #   2 total cpu time : 19029.4 secs   av.it.:  13.8
      thresh= 6.812E-04 alpha_mix =  0.700 |ddv_scf|^2 =  1.623E-04

      iter #   3 total cpu time : 19260.8 secs   av.it.:  11.9
      thresh= 1.274E-03 alpha_mix =  0.700 |ddv_scf|^2 =  8.998E-07

      iter #   4 total cpu time : 19518.9 secs   av.it.:  13.5
      thresh= 9.486E-05 alpha_mix =  0.700 |ddv_scf|^2 =  2.317E-08

      iter #   5 total cpu time : 19763.7 secs   av.it.:  13.6
      thresh= 1.522E-05 alpha_mix =  0.700 |ddv_scf|^2 =  6.877E-09

      iter #   6 total cpu time : 19998.6 secs   av.it.:  13.2
      thresh= 8.293E-06 alpha_mix =  0.700 |ddv_scf|^2 =  1.234E-09

      iter #   7 total cpu time : 20274.9 secs   av.it.:  13.2
      thresh= 3.512E-06 alpha_mix =  0.700 |ddv_scf|^2 =  4.263E-11

      iter #   8 total cpu time : 20509.0 secs   av.it.:  13.5
      thresh= 6.529E-07 alpha_mix =  0.700 |ddv_scf|^2 =  2.221E-12

      iter #   9 total cpu time : 20775.2 secs   av.it.:  14.2
      thresh= 1.490E-07 alpha_mix =  0.700 |ddv_scf|^2 =  5.018E-13

      iter #  10 total cpu time : 21044.9 secs   av.it.:  14.0
      thresh= 7.084E-08 alpha_mix =  0.700 |ddv_scf|^2 =  1.398E-13

      iter #  11 total cpu time : 21290.9 secs   av.it.:  13.6
      thresh= 3.739E-08 alpha_mix =  0.700 |ddv_scf|^2 =  1.732E-14

      iter #  12 total cpu time : 21540.1 secs   av.it.:  13.8
      thresh= 1.316E-08 alpha_mix =  0.700 |ddv_scf|^2 =  1.978E-15

     End of self-consistent calculation

     Convergence has been achieved 


     Representation #  3 mode #   3

     Self-consistent Calculation

      iter #   1 total cpu time : 21713.7 secs   av.it.:   7.9
      thresh= 1.000E-02 alpha_mix =  0.700 |ddv_scf|^2 =  9.875E-06

      iter #   2 total cpu time : 21942.0 secs   av.it.:  13.6
      thresh= 3.143E-04 alpha_mix =  0.700 |ddv_scf|^2 =  2.908E-05

      iter #   3 total cpu time : 22180.0 secs   av.it.:  11.8
      thresh= 5.393E-04 alpha_mix =  0.700 |ddv_scf|^2 =  2.864E-07

      iter #   4 total cpu time : 22404.0 secs   av.it.:  13.5
      thresh= 5.351E-05 alpha_mix =  0.700 |ddv_scf|^2 =  3.193E-08

      iter #   5 total cpu time : 22647.9 secs   av.it.:  13.1
      thresh= 1.787E-05 alpha_mix =  0.700 |ddv_scf|^2 =  8.544E-10

      iter #   6 total cpu time : 22884.6 secs   av.it.:  13.9
      thresh= 2.923E-06 alpha_mix =  0.700 |ddv_scf|^2 =  1.728E-10

      iter #   7 total cpu time : 23113.4 secs   av.it.:  13.8
      thresh= 1.315E-06 alpha_mix =  0.700 |ddv_scf|^2 =  2.511E-11

      iter #   8 total cpu time : 23339.0 secs   av.it.:  13.5
      thresh= 5.011E-07 alpha_mix =  0.700 |ddv_scf|^2 =  4.656E-13

      iter #   9 total cpu time : 23620.8 secs   av.it.:  14.9
      thresh= 6.824E-08 alpha_mix =  0.700 |ddv_scf|^2 =  2.060E-13

      iter #  10 total cpu time : 23888.7 secs   av.it.:  14.2
      thresh= 4.539E-08 alpha_mix =  0.700 |ddv_scf|^2 =  9.550E-14

      iter #  11 total cpu time : 24115.3 secs   av.it.:  13.9
      thresh= 3.090E-08 alpha_mix =  0.700 |ddv_scf|^2 =  1.850E-14

      iter #  12 total cpu time : 24342.5 secs   av.it.:  13.3
      thresh= 1.360E-08 alpha_mix =  0.700 |ddv_scf|^2 =  5.502E-15

     End of self-consistent calculation

     Convergence has been achieved 


     Representation #  4 mode #   4

     Self-consistent Calculation

      iter #   1 total cpu time : 24521.1 secs   av.it.:   7.4
      thresh= 1.000E-02 alpha_mix =  0.700 |ddv_scf|^2 =  3.847E-06

      iter #   2 total cpu time : 24824.3 secs   av.it.:  13.7
      thresh= 1.961E-04 alpha_mix =  0.700 |ddv_scf|^2 =  1.047E-05

      iter #   3 total cpu time : 25030.7 secs   av.it.:  11.8
      thresh= 3.236E-04 alpha_mix =  0.700 |ddv_scf|^2 =  1.545E-07

      iter #   4 total cpu time : 25301.0 secs   av.it.:  13.3
      thresh= 3.931E-05 alpha_mix =  0.700 |ddv_scf|^2 =  2.021E-08

      iter #   5 total cpu time : 25536.3 secs   av.it.:  13.1
      thresh= 1.421E-05 alpha_mix =  0.700 |ddv_scf|^2 =  5.210E-10

      iter #   6 total cpu time : 25794.2 secs   av.it.:  13.6
      thresh= 2.282E-06 alpha_mix =  0.700 |ddv_scf|^2 =  9.618E-11

      iter #   7 total cpu time : 26049.4 secs   av.it.:  13.7
      thresh= 9.807E-07 alpha_mix =  0.700 |ddv_scf|^2 =  2.454E-11

      iter #   8 total cpu time : 26282.0 secs   av.it.:  13.1
      thresh= 4.953E-07 alpha_mix =  0.700 |ddv_scf|^2 =  1.223E-12

      iter #   9 total cpu time : 26568.0 secs   av.it.:  14.2
      thresh= 1.106E-07 alpha_mix =  0.700 |ddv_scf|^2 =  1.811E-13

      iter #  10 total cpu time : 26827.7 secs   av.it.:  14.2
      thresh= 4.255E-08 alpha_mix =  0.700 |ddv_scf|^2 =  6.550E-14

      iter #  11 total cpu time : 27067.2 secs   av.it.:  13.8
      thresh= 2.559E-08 alpha_mix =  0.700 |ddv_scf|^2 =  4.158E-14

      iter #  12 total cpu time : 27293.7 secs   av.it.:  13.1
      thresh= 2.039E-08 alpha_mix =  0.700 |ddv_scf|^2 =  5.950E-15

     End of self-consistent calculation

     Convergence has been achieved 


     Representation #  5 mode #   5

     Self-consistent Calculation

      iter #   1 total cpu time : 27480.8 secs   av.it.:   9.0
      thresh= 1.000E-02 alpha_mix =  0.700 |ddv_scf|^2 =  4.352E-05

      iter #   2 total cpu time : 27725.9 secs   av.it.:  13.8
      thresh= 6.597E-04 alpha_mix =  0.700 |ddv_scf|^2 =  1.513E-04

      iter #   3 total cpu time : 27932.9 secs   av.it.:  12.0
      thresh= 1.230E-03 alpha_mix =  0.700 |ddv_scf|^2 =  8.877E-07

      iter #   4 total cpu time : 28159.1 secs   av.it.:  13.6
      thresh= 9.422E-05 alpha_mix =  0.700 |ddv_scf|^2 =  2.234E-08

      iter #   5 total cpu time : 28403.1 secs   av.it.:  13.6
      thresh= 1.495E-05 alpha_mix =  0.700 |ddv_scf|^2 =  6.622E-09

      iter #   6 total cpu time : 28635.6 secs   av.it.:  13.2
      thresh= 8.137E-06 alpha_mix =  0.700 |ddv_scf|^2 =  1.192E-09

      iter #   7 total cpu time : 28888.2 secs   av.it.:  13.3
      thresh= 3.453E-06 alpha_mix =  0.700 |ddv_scf|^2 =  4.305E-11

      iter #   8 total cpu time : 29121.8 secs   av.it.:  13.6
      thresh= 6.561E-07 alpha_mix =  0.700 |ddv_scf|^2 =  2.374E-12

      iter #   9 total cpu time : 29426.1 secs   av.it.:  14.4
      thresh= 1.541E-07 alpha_mix =  0.700 |ddv_scf|^2 =  6.895E-13

      iter #  10 total cpu time : 29675.9 secs   av.it.:  14.1
      thresh= 8.304E-08 alpha_mix =  0.700 |ddv_scf|^2 =  2.709E-13

      iter #  11 total cpu time : 29932.0 secs   av.it.:  13.7
      thresh= 5.205E-08 alpha_mix =  0.700 |ddv_scf|^2 =  1.685E-14

      iter #  12 total cpu time : 30198.8 secs   av.it.:  13.9
      thresh= 1.298E-08 alpha_mix =  0.700 |ddv_scf|^2 =  2.298E-15

     End of self-consistent calculation

     Convergence has been achieved 


     Representation #  6 mode #   6

     Self-consistent Calculation

      iter #   1 total cpu time : 30386.5 secs   av.it.:   8.6
      thresh= 1.000E-02 alpha_mix =  0.700 |ddv_scf|^2 =  5.611E-06

      iter #   2 total cpu time : 30654.8 secs   av.it.:  14.5
      thresh= 2.369E-04 alpha_mix =  0.700 |ddv_scf|^2 =  6.363E-06

      iter #   3 total cpu time : 30916.1 secs   av.it.:  13.5
      thresh= 2.522E-04 alpha_mix =  0.700 |ddv_scf|^2 =  7.721E-07

      iter #   4 total cpu time : 31174.6 secs   av.it.:  13.3
      thresh= 8.787E-05 alpha_mix =  0.700 |ddv_scf|^2 =  4.267E-09

      iter #   5 total cpu time : 31418.3 secs   av.it.:  13.6
      thresh= 6.532E-06 alpha_mix =  0.700 |ddv_scf|^2 =  4.165E-09

      iter #   6 total cpu time : 31686.8 secs   av.it.:  12.9
      thresh= 6.453E-06 alpha_mix =  0.700 |ddv_scf|^2 =  4.142E-11

      iter #   7 total cpu time : 31966.5 secs   av.it.:  14.5
      thresh= 6.436E-07 alpha_mix =  0.700 |ddv_scf|^2 =  3.179E-11

      iter #   8 total cpu time : 32267.0 secs   av.it.:  13.6
      thresh= 5.638E-07 alpha_mix =  0.700 |ddv_scf|^2 =  1.906E-12

      iter #   9 total cpu time : 32512.8 secs   av.it.:  14.2
      thresh= 1.380E-07 alpha_mix =  0.700 |ddv_scf|^2 =  5.300E-13

      iter #  10 total cpu time : 32765.0 secs   av.it.:  13.5
      thresh= 7.280E-08 alpha_mix =  0.700 |ddv_scf|^2 =  7.956E-14

      iter #  11 total cpu time : 33001.0 secs   av.it.:  13.8
      thresh= 2.821E-08 alpha_mix =  0.700 |ddv_scf|^2 =  8.809E-15

     End of self-consistent calculation

     Convergence has been achieved 


     Representation #  7 mode #   7

     Self-consistent Calculation

      iter #   1 total cpu time : 33173.8 secs   av.it.:   7.9
      thresh= 1.000E-02 alpha_mix =  0.700 |ddv_scf|^2 =  3.393E-06

      iter #   2 total cpu time : 33462.6 secs   av.it.:  14.2
      thresh= 1.842E-04 alpha_mix =  0.700 |ddv_scf|^2 =  7.986E-06

      iter #   3 total cpu time : 33684.8 secs   av.it.:  12.1
      thresh= 2.826E-04 alpha_mix =  0.700 |ddv_scf|^2 =  2.668E-07

      iter #   4 total cpu time : 33939.0 secs   av.it.:  13.2
      thresh= 5.165E-05 alpha_mix =  0.700 |ddv_scf|^2 =  8.570E-09

      iter #   5 total cpu time : 34172.3 secs   av.it.:  13.4
      thresh= 9.257E-06 alpha_mix =  0.700 |ddv_scf|^2 =  6.301E-10

      iter #   6 total cpu time : 34447.0 secs   av.it.:  13.6
      thresh= 2.510E-06 alpha_mix =  0.700 |ddv_scf|^2 =  7.278E-11

      iter #   7 total cpu time : 34693.3 secs   av.it.:  13.7
      thresh= 8.531E-07 alpha_mix =  0.700 |ddv_scf|^2 =  2.190E-11

      iter #   8 total cpu time : 34981.0 secs   av.it.:  13.4
      thresh= 4.679E-07 alpha_mix =  0.700 |ddv_scf|^2 =  9.263E-13

      iter #   9 total cpu time : 35247.9 secs   av.it.:  14.4
      thresh= 9.624E-08 alpha_mix =  0.700 |ddv_scf|^2 =  1.292E-13

      iter #  10 total cpu time : 35497.1 secs   av.it.:  14.4
      thresh= 3.595E-08 alpha_mix =  0.700 |ddv_scf|^2 =  1.753E-14

      iter #  11 total cpu time : 35768.1 secs   av.it.:  14.3
      thresh= 1.324E-08 alpha_mix =  0.700 |ddv_scf|^2 =  2.321E-14

      iter #  12 total cpu time : 36025.6 secs   av.it.:  13.3
      thresh= 1.523E-08 alpha_mix =  0.700 |ddv_scf|^2 =  1.109E-15

     End of self-consistent calculation

     Convergence has been achieved 


     Representation #  8 mode #   8

     Self-consistent Calculation

      iter #   1 total cpu time : 36199.0 secs   av.it.:   7.8
      thresh= 1.000E-02 alpha_mix =  0.700 |ddv_scf|^2 =  2.985E-06

      iter #   2 total cpu time : 36479.0 secs   av.it.:  14.2
      thresh= 1.728E-04 alpha_mix =  0.700 |ddv_scf|^2 =  4.666E-06

      iter #   3 total cpu time : 36723.9 secs   av.it.:  12.6
      thresh= 2.160E-04 alpha_mix =  0.700 |ddv_scf|^2 =  4.349E-07

      iter #   4 total cpu time : 36979.9 secs   av.it.:  12.8
      thresh= 6.595E-05 alpha_mix =  0.700 |ddv_scf|^2 =  6.403E-09

      iter #   5 total cpu time : 37235.2 secs   av.it.:  13.7
      thresh= 8.002E-06 alpha_mix =  0.700 |ddv_scf|^2 =  7.310E-10

      iter #   6 total cpu time : 37500.2 secs   av.it.:  13.3
      thresh= 2.704E-06 alpha_mix =  0.700 |ddv_scf|^2 =  5.670E-11

      iter #   7 total cpu time : 37758.1 secs   av.it.:  14.1
      thresh= 7.530E-07 alpha_mix =  0.700 |ddv_scf|^2 =  2.143E-11

      iter #   8 total cpu time : 37990.5 secs   av.it.:  13.4
      thresh= 4.630E-07 alpha_mix =  0.700 |ddv_scf|^2 =  1.183E-12

      iter #   9 total cpu time : 38236.1 secs   av.it.:  13.7
      thresh= 1.088E-07 alpha_mix =  0.700 |ddv_scf|^2 =  1.442E-13

      iter #  10 total cpu time : 38514.9 secs   av.it.:  14.3
      thresh= 3.798E-08 alpha_mix =  0.700 |ddv_scf|^2 =  9.795E-15

     End of self-consistent calculation

     Convergence has been achieved 


     Representation #  9 mode #   9

     Self-consistent Calculation

      iter #   1 total cpu time : 38701.2 secs   av.it.:   8.6
      thresh= 1.000E-02 alpha_mix =  0.700 |ddv_scf|^2 =  8.057E-06

      iter #   2 total cpu time : 38985.5 secs   av.it.:  14.4
      thresh= 2.839E-04 alpha_mix =  0.700 |ddv_scf|^2 =  1.519E-05

      iter #   3 total cpu time : 39223.0 secs   av.it.:  12.9
      thresh= 3.898E-04 alpha_mix =  0.700 |ddv_scf|^2 =  1.059E-06

      iter #   4 total cpu time : 39468.0 secs   av.it.:  13.1
      thresh= 1.029E-04 alpha_mix =  0.700 |ddv_scf|^2 =  6.506E-09

      iter #   5 total cpu time : 39769.3 secs   av.it.:  14.1
      thresh= 8.066E-06 alpha_mix =  0.700 |ddv_scf|^2 =  4.366E-09

      iter #   6 total cpu time : 40036.8 secs   av.it.:  13.3
      thresh= 6.608E-06 alpha_mix =  0.700 |ddv_scf|^2 =  2.585E-10

      iter #   7 total cpu time : 40299.7 secs   av.it.:  14.0
      thresh= 1.608E-06 alpha_mix =  0.700 |ddv_scf|^2 =  7.529E-11

      iter #   8 total cpu time : 40557.0 secs   av.it.:  13.1
      thresh= 8.677E-07 alpha_mix =  0.700 |ddv_scf|^2 =  1.596E-12

      iter #   9 total cpu time : 40809.4 secs   av.it.:  14.4
      thresh= 1.263E-07 alpha_mix =  0.700 |ddv_scf|^2 =  8.067E-13

      iter #  10 total cpu time : 41122.4 secs   av.it.:  13.7
      thresh= 8.982E-08 alpha_mix =  0.700 |ddv_scf|^2 =  9.919E-14

      iter #  11 total cpu time : 41373.2 secs   av.it.:  14.2
      thresh= 3.149E-08 alpha_mix =  0.700 |ddv_scf|^2 =  1.501E-14

      iter #  12 total cpu time : 41650.5 secs   av.it.:  14.1
      thresh= 1.225E-08 alpha_mix =  0.700 |ddv_scf|^2 =  4.116E-15

     End of self-consistent calculation

     Convergence has been achieved 


     Representation # 10 mode #  10

     Self-consistent Calculation

      iter #   1 total cpu time : 41831.4 secs   av.it.:   7.8
      thresh= 1.000E-02 alpha_mix =  0.700 |ddv_scf|^2 =  2.098E-06

      iter #   2 total cpu time : 42133.0 secs   av.it.:  14.3
      thresh= 1.448E-04 alpha_mix =  0.700 |ddv_scf|^2 =  3.511E-06

      iter #   3 total cpu time : 42371.8 secs   av.it.:  12.5
      thresh= 1.874E-04 alpha_mix =  0.700 |ddv_scf|^2 =  3.110E-07

      iter #   4 total cpu time : 42615.1 secs   av.it.:  12.9
      thresh= 5.577E-05 alpha_mix =  0.700 |ddv_scf|^2 =  5.079E-09

      iter #   5 total cpu time : 42847.9 secs   av.it.:  13.7
      thresh= 7.127E-06 alpha_mix =  0.700 |ddv_scf|^2 =  5.185E-10

      iter #   6 total cpu time : 43091.2 secs   av.it.:  13.6
      thresh= 2.277E-06 alpha_mix =  0.700 |ddv_scf|^2 =  6.558E-11

      iter #   7 total cpu time : 43361.2 secs   av.it.:  13.8
      thresh= 8.098E-07 alpha_mix =  0.700 |ddv_scf|^2 =  1.665E-11

      iter #   8 total cpu time : 43587.7 secs   av.it.:  13.5
      thresh= 4.080E-07 alpha_mix =  0.700 |ddv_scf|^2 =  7.286E-13

      iter #   9 total cpu time : 43837.6 secs   av.it.:  13.9
      thresh= 8.536E-08 alpha_mix =  0.700 |ddv_scf|^2 =  8.773E-14

      iter #  10 total cpu time : 44117.5 secs   av.it.:  14.5
      thresh= 2.962E-08 alpha_mix =  0.700 |ddv_scf|^2 =  3.727E-14

      iter #  11 total cpu time : 44400.1 secs   av.it.:  14.0
      thresh= 1.931E-08 alpha_mix =  0.700 |ddv_scf|^2 =  2.905E-14

      iter #  12 total cpu time : 44673.8 secs   av.it.:  13.3
      thresh= 1.704E-08 alpha_mix =  0.700 |ddv_scf|^2 =  2.959E-15

     End of self-consistent calculation

     Convergence has been achieved 


     Representation # 11 mode #  11

     Self-consistent Calculation

      iter #   1 total cpu time : 44862.1 secs   av.it.:   7.9
      thresh= 1.000E-02 alpha_mix =  0.700 |ddv_scf|^2 =  8.577E-06

      iter #   2 total cpu time : 45146.7 secs   av.it.:  13.7
      thresh= 2.929E-04 alpha_mix =  0.700 |ddv_scf|^2 =  2.459E-05

      iter #   3 total cpu time : 45383.4 secs   av.it.:  11.8
      thresh= 4.959E-04 alpha_mix =  0.700 |ddv_scf|^2 =  2.772E-07

      iter #   4 total cpu time : 45646.9 secs   av.it.:  13.5
      thresh= 5.265E-05 alpha_mix =  0.700 |ddv_scf|^2 =  2.929E-08

      iter #   5 total cpu time : 45927.0 secs   av.it.:  13.1
      thresh= 1.711E-05 alpha_mix =  0.700 |ddv_scf|^2 =  8.857E-10

      iter #   6 total cpu time : 46188.4 secs   av.it.:  13.8
      thresh= 2.976E-06 alpha_mix =  0.700 |ddv_scf|^2 =  1.564E-10

      iter #   7 total cpu time : 46433.8 secs   av.it.:  13.9
      thresh= 1.250E-06 alpha_mix =  0.700 |ddv_scf|^2 =  2.331E-11

      iter #   8 total cpu time : 46722.8 secs   av.it.:  13.6
      thresh= 4.828E-07 alpha_mix =  0.700 |ddv_scf|^2 =  6.196E-13

      iter #   9 total cpu time : 47001.4 secs   av.it.:  14.9
      thresh= 7.872E-08 alpha_mix =  0.700 |ddv_scf|^2 =  2.325E-13

      iter #  10 total cpu time : 47262.1 secs   av.it.:  14.2
      thresh= 4.822E-08 alpha_mix =  0.700 |ddv_scf|^2 =  1.035E-13

      iter #  11 total cpu time : 47514.9 secs   av.it.:  14.0
      thresh= 3.217E-08 alpha_mix =  0.700 |ddv_scf|^2 =  1.913E-14

      iter #  12 total cpu time : 47761.1 secs   av.it.:  13.4
      thresh= 1.383E-08 alpha_mix =  0.700 |ddv_scf|^2 =  4.629E-15

     End of self-consistent calculation

     Convergence has been achieved 


     Representation # 12 mode #  12

     Self-consistent Calculation

      iter #   1 total cpu time : 47931.5 secs   av.it.:   7.5
      thresh= 1.000E-02 alpha_mix =  0.700 |ddv_scf|^2 =  1.002E-06

      iter #   2 total cpu time : 48173.3 secs   av.it.:  14.4
      thresh= 1.001E-04 alpha_mix =  0.700 |ddv_scf|^2 =  1.531E-07

      iter #   3 total cpu time : 48427.7 secs   av.it.:  14.4
      thresh= 3.913E-05 alpha_mix =  0.700 |ddv_scf|^2 =  4.342E-08

      iter #   4 total cpu time : 48668.1 secs   av.it.:  13.3
      thresh= 2.084E-05 alpha_mix =  0.700 |ddv_scf|^2 =  3.588E-09

      iter #   5 total cpu time : 48928.4 secs   av.it.:  13.8
      thresh= 5.990E-06 alpha_mix =  0.700 |ddv_scf|^2 =  2.044E-11

      iter #   6 total cpu time : 49223.1 secs   av.it.:  14.3
      thresh= 4.521E-07 alpha_mix =  0.700 |ddv_scf|^2 =  7.550E-13

      iter #   7 total cpu time : 49539.8 secs   av.it.:  14.4
      thresh= 8.689E-08 alpha_mix =  0.700 |ddv_scf|^2 =  6.826E-14

      iter #   8 total cpu time : 49817.5 secs   av.it.:  14.3
      thresh= 2.613E-08 alpha_mix =  0.700 |ddv_scf|^2 =  3.887E-15

     End of self-consistent calculation

     Convergence has been achieved 


     Representation # 13 mode #  13

     Self-consistent Calculation

      iter #   1 total cpu time : 50015.8 secs   av.it.:   8.5
      thresh= 1.000E-02 alpha_mix =  0.700 |ddv_scf|^2 =  5.341E-06

      iter #   2 total cpu time : 50274.9 secs   av.it.:  14.4
      thresh= 2.311E-04 alpha_mix =  0.700 |ddv_scf|^2 =  5.331E-06

      iter #   3 total cpu time : 50517.5 secs   av.it.:  13.5
      thresh= 2.309E-04 alpha_mix =  0.700 |ddv_scf|^2 =  6.759E-07

      iter #   4 total cpu time : 50781.9 secs   av.it.:  13.3
      thresh= 8.221E-05 alpha_mix =  0.700 |ddv_scf|^2 =  6.574E-10

      iter #   5 total cpu time : 51040.7 secs   av.it.:  14.1
      thresh= 2.564E-06 alpha_mix =  0.700 |ddv_scf|^2 =  4.168E-11

      iter #   6 total cpu time : 51289.2 secs   av.it.:  14.0
      thresh= 6.456E-07 alpha_mix =  0.700 |ddv_scf|^2 =  1.127E-11

      iter #   7 total cpu time : 51521.0 secs   av.it.:  13.4
      thresh= 3.357E-07 alpha_mix =  0.700 |ddv_scf|^2 =  1.997E-13

      iter #   8 total cpu time : 51764.3 secs   av.it.:  13.8
      thresh= 4.469E-08 alpha_mix =  0.700 |ddv_scf|^2 =  2.428E-15

     End of self-consistent calculation

     Convergence has been achieved 


     Representation # 14 mode #  14

     Self-consistent Calculation

      iter #   1 total cpu time : 51930.8 secs   av.it.:   7.0
      thresh= 1.000E-02 alpha_mix =  0.700 |ddv_scf|^2 =  8.094E-07

      iter #   2 total cpu time : 52187.2 secs   av.it.:  14.0
      thresh= 8.997E-05 alpha_mix =  0.700 |ddv_scf|^2 =  4.898E-08

      iter #   3 total cpu time : 52424.8 secs   av.it.:  14.4
      thresh= 2.213E-05 alpha_mix =  0.700 |ddv_scf|^2 =  2.535E-08

      iter #   4 total cpu time : 52678.0 secs   av.it.:  13.2
      thresh= 1.592E-05 alpha_mix =  0.700 |ddv_scf|^2 =  1.011E-09

      iter #   5 total cpu time : 52941.2 secs   av.it.:  13.9
      thresh= 3.180E-06 alpha_mix =  0.700 |ddv_scf|^2 =  2.867E-11

      iter #   6 total cpu time : 53195.9 secs   av.it.:  14.4
      thresh= 5.354E-07 alpha_mix =  0.700 |ddv_scf|^2 =  7.723E-13

      iter #   7 total cpu time : 53481.7 secs   av.it.:  14.3
      thresh= 8.788E-08 alpha_mix =  0.700 |ddv_scf|^2 =  3.801E-14

      iter #   8 total cpu time : 53715.6 secs   av.it.:  14.2
      thresh= 1.950E-08 alpha_mix =  0.700 |ddv_scf|^2 =  2.147E-15

     End of self-consistent calculation

     Convergence has been achieved 


     Representation # 15 mode #  15

     Self-consistent Calculation

      iter #   1 total cpu time : 53928.0 secs   av.it.:   7.4
      thresh= 1.000E-02 alpha_mix =  0.700 |ddv_scf|^2 =  8.055E-07

      iter #   2 total cpu time : 54201.4 secs   av.it.:  14.5
      thresh= 8.975E-05 alpha_mix =  0.700 |ddv_scf|^2 =  8.267E-08

      iter #   3 total cpu time : 54448.5 secs   av.it.:  14.5
      thresh= 2.875E-05 alpha_mix =  0.700 |ddv_scf|^2 =  3.197E-08

      iter #   4 total cpu time : 54674.0 secs   av.it.:  13.2
      thresh= 1.788E-05 alpha_mix =  0.700 |ddv_scf|^2 =  2.050E-09

      iter #   5 total cpu time : 54933.6 secs   av.it.:  13.9
      thresh= 4.528E-06 alpha_mix =  0.700 |ddv_scf|^2 =  1.786E-11

      iter #   6 total cpu time : 55208.3 secs   av.it.:  14.2
      thresh= 4.226E-07 alpha_mix =  0.700 |ddv_scf|^2 =  7.297E-13

      iter #   7 total cpu time : 55472.1 secs   av.it.:  14.7
      thresh= 8.542E-08 alpha_mix =  0.700 |ddv_scf|^2 =  1.403E-13

      iter #   8 total cpu time : 55718.4 secs   av.it.:  14.4
      thresh= 3.745E-08 alpha_mix =  0.700 |ddv_scf|^2 =  7.594E-15

     End of self-consistent calculation

     Convergence has been achieved 


     Representation # 16 mode #  16

     Self-consistent Calculation

      iter #   1 total cpu time : 55881.7 secs   av.it.:   7.0
      thresh= 1.000E-02 alpha_mix =  0.700 |ddv_scf|^2 =  8.094E-07

      iter #   2 total cpu time : 56146.7 secs   av.it.:  14.0
      thresh= 8.997E-05 alpha_mix =  0.700 |ddv_scf|^2 =  4.898E-08

      iter #   3 total cpu time : 56424.1 secs   av.it.:  14.4
      thresh= 2.213E-05 alpha_mix =  0.700 |ddv_scf|^2 =  2.535E-08

      iter #   4 total cpu time : 56662.5 secs   av.it.:  13.2
      thresh= 1.592E-05 alpha_mix =  0.700 |ddv_scf|^2 =  1.011E-09

      iter #   5 total cpu time : 56904.0 secs   av.it.:  13.9
      thresh= 3.180E-06 alpha_mix =  0.700 |ddv_scf|^2 =  2.867E-11

      iter #   6 total cpu time : 57140.5 secs   av.it.:  14.4
      thresh= 5.354E-07 alpha_mix =  0.700 |ddv_scf|^2 =  7.723E-13

      iter #   7 total cpu time : 57412.1 secs   av.it.:  14.3
      thresh= 8.788E-08 alpha_mix =  0.700 |ddv_scf|^2 =  3.801E-14

      iter #   8 total cpu time : 57696.7 secs   av.it.:  14.2
      thresh= 1.950E-08 alpha_mix =  0.700 |ddv_scf|^2 =  2.147E-15

     End of self-consistent calculation

     Convergence has been achieved 


     Representation # 17 mode #  17

     Self-consistent Calculation

      iter #   1 total cpu time : 57882.8 secs   av.it.:   8.3
      thresh= 1.000E-02 alpha_mix =  0.700 |ddv_scf|^2 =  4.907E-06

      iter #   2 total cpu time : 58172.8 secs   av.it.:  14.3
      thresh= 2.215E-04 alpha_mix =  0.700 |ddv_scf|^2 =  3.127E-06

      iter #   3 total cpu time : 58446.8 secs   av.it.:  13.8
      thresh= 1.768E-04 alpha_mix =  0.700 |ddv_scf|^2 =  5.086E-07

      iter #   4 total cpu time : 58679.2 secs   av.it.:  13.1
      thresh= 7.131E-05 alpha_mix =  0.700 |ddv_scf|^2 =  7.088E-10

      iter #   5 total cpu time : 58921.2 secs   av.it.:  14.1
      thresh= 2.662E-06 alpha_mix =  0.700 |ddv_scf|^2 =  2.655E-11

      iter #   6 total cpu time : 59176.6 secs   av.it.:  14.4
      thresh= 5.152E-07 alpha_mix =  0.700 |ddv_scf|^2 =  8.601E-12

      iter #   7 total cpu time : 59477.1 secs   av.it.:  13.7
      thresh= 2.933E-07 alpha_mix =  0.700 |ddv_scf|^2 =  1.702E-13

      iter #   8 total cpu time : 59716.4 secs   av.it.:  14.0
      thresh= 4.126E-08 alpha_mix =  0.700 |ddv_scf|^2 =  4.129E-15

     End of self-consistent calculation

     Convergence has been achieved 


     Representation # 18 mode #  18

     Self-consistent Calculation

      iter #   1 total cpu time : 59885.8 secs   av.it.:   7.5
      thresh= 1.000E-02 alpha_mix =  0.700 |ddv_scf|^2 =  1.025E-06

      iter #   2 total cpu time : 60132.0 secs   av.it.:  14.5
      thresh= 1.012E-04 alpha_mix =  0.700 |ddv_scf|^2 =  2.815E-07

      iter #   3 total cpu time : 60382.9 secs   av.it.:  14.2
      thresh= 5.306E-05 alpha_mix =  0.700 |ddv_scf|^2 =  9.506E-08

      iter #   4 total cpu time : 60598.1 secs   av.it.:  13.0
      thresh= 3.083E-05 alpha_mix =  0.700 |ddv_scf|^2 =  3.480E-09

      iter #   5 total cpu time : 60860.9 secs   av.it.:  14.0
      thresh= 5.899E-06 alpha_mix =  0.700 |ddv_scf|^2 =  1.690E-11

      iter #   6 total cpu time : 61111.2 secs   av.it.:  14.3
      thresh= 4.111E-07 alpha_mix =  0.700 |ddv_scf|^2 =  6.610E-13

      iter #   7 total cpu time : 61360.6 secs   av.it.:  14.6
      thresh= 8.130E-08 alpha_mix =  0.700 |ddv_scf|^2 =  7.519E-14

      iter #   8 total cpu time : 61612.9 secs   av.it.:  14.5
      thresh= 2.742E-08 alpha_mix =  0.700 |ddv_scf|^2 =  3.432E-15

     End of self-consistent calculation

     Convergence has been achieved 
 
     Number of q in the star =    2
     List of q in the star:
          1   0.000000000   0.000000000   0.496328851
          2   0.000000000   0.000000000  -0.496328851

     Diagonalizing the dynamical matrix

     q = (    0.000000000   0.000000000   0.496328851 ) 

 **************************************************************************
     freq (    1) =       3.119484 [THz] =     104.054770 [cm-1]
     freq (    2) =       3.119507 [THz] =     104.055537 [cm-1]
     freq (    3) =       5.559432 [THz] =     185.442693 [cm-1]
     freq (    4) =       5.801704 [THz] =     193.524000 [cm-1]
     freq (    5) =       5.813038 [THz] =     193.902060 [cm-1]
     freq (    6) =       6.839555 [THz] =     228.143012 [cm-1]
     freq (    7) =       6.997884 [THz] =     233.424278 [cm-1]
     freq (    8) =       7.008304 [THz] =     233.771854 [cm-1]
     freq (    9) =       7.801785 [THz] =     260.239532 [cm-1]
     freq (   10) =       8.800768 [THz] =     293.562016 [cm-1]
     freq (   11) =      15.256664 [THz] =     508.907543 [cm-1]
     freq (   12) =      15.266523 [THz] =     509.236390 [cm-1]
     freq (   13) =      15.900462 [THz] =     530.382308 [cm-1]
     freq (   14) =      15.916226 [THz] =     530.908161 [cm-1]
     freq (   15) =      16.588227 [THz] =     553.323708 [cm-1]
     freq (   16) =      17.703981 [THz] =     590.541243 [cm-1]
     freq (   17) =      18.895804 [THz] =     630.296166 [cm-1]
     freq (   18) =      20.335385 [THz] =     678.315435 [cm-1]
 **************************************************************************

     Mode symmetry, C_s (m)     point group:

     freq (  1 -  1) =        104.1  [cm-1]   --> A'                 
     freq (  2 -  2) =        104.1  [cm-1]   --> A''                
     freq (  3 -  3) =        185.4  [cm-1]   --> A''                
     freq (  4 -  4) =        193.5  [cm-1]   --> A''                
     freq (  5 -  5) =        193.9  [cm-1]   --> A'                 
     freq (  6 -  6) =        228.1  [cm-1]   --> A'                 
     freq (  7 -  7) =        233.4  [cm-1]   --> A'                 
     freq (  8 -  8) =        233.8  [cm-1]   --> A''                
     freq (  9 -  9) =        260.2  [cm-1]   --> A'                 
     freq ( 10 - 10) =        293.6  [cm-1]   --> A''                
     freq ( 11 - 11) =        508.9  [cm-1]   --> A''                
     freq ( 12 - 12) =        509.2  [cm-1]   --> A'                 
     freq ( 13 - 13) =        530.4  [cm-1]   --> A'                 
     freq ( 14 - 14) =        530.9  [cm-1]   --> A''                
     freq ( 15 - 15) =        553.3  [cm-1]   --> A'                 
     freq ( 16 - 16) =        590.5  [cm-1]   --> A'                 
     freq ( 17 - 17) =        630.3  [cm-1]   --> A'                 
     freq ( 18 - 18) =        678.3  [cm-1]   --> A'                 

     Calculation of q =    0.0000000   0.3333333   0.0000000
 
     Parallelization info
     --------------------
     sticks:   dense  smooth     PW     G-vecs:    dense   smooth      PW
     Min          62      62     18                 1404     1404     230
     Max          63      63     19                 1405     1405     233
     Sum        2001    2001    593                44945    44945    7379
 

     Title: 
     Phonon dispersions for SnO2                                                


     bravais-lattice index     =            6
     lattice parameter (alat)  =       9.1370  a.u.
     unit-cell volume          =     512.3005 (a.u.)^3
     number of atoms/cell      =            6
     number of atomic types    =            2
     number of electrons       =        52.00
     number of Kohn-Sham states=           26
     kinetic-energy cutoff     =      75.0000  Ry
     charge density cutoff     =     300.0000  Ry
     Exchange-correlation      = PBE ( 1  4  3  4 0 0)

     celldm(1)=   9.137033  celldm(2)=   1.000000  celldm(3)=   0.671598
     celldm(4)=   0.000000  celldm(5)=   0.000000  celldm(6)=   0.000000

     crystal axes: (cart. coord. in units of alat)
               a(1) = (   1.000000   0.000000   0.000000 )  
               a(2) = (   0.000000   1.000000   0.000000 )  
               a(3) = (   0.000000   0.000000   0.671598 )  

     reciprocal axes: (cart. coord. in units 2 pi/alat)
               b(1) = (  1.000000  0.000000  0.000000 )  
               b(2) = (  0.000000  1.000000  0.000000 )  
               b(3) = (  0.000000  0.000000  1.488987 )  


     PseudoPot. # 1 for Sn read from file:
     ../../Pseudo_potentials/Sn_PBE.upf
     MD5 check sum: 78e6386ae56e929f0568ae8bf606a80c
     Pseudo is Norm-conserving + core correction, Zval = 14.0
     Generated using ONCVPSP code by D. R. Hamann
     Using radial grid of 1628 points,  6 beta functions with: 
                l(1) =   0
                l(2) =   0
                l(3) =   1
                l(4) =   1
                l(5) =   2
                l(6) =   2

     PseudoPot. # 2 for O  read from file:
     ../../Pseudo_potentials/O_PBE.upf
     MD5 check sum: 3e3f909f7470e8921608ab6b1f57bbae
     Pseudo is Norm-conserving + core correction, Zval =  6.0
     Generated using ONCVPSP code by D. R. Hamann
     Using radial grid of  936 points,  5 beta functions with: 
                l(1) =   0
                l(2) =   0
                l(3) =   1
                l(4) =   1
                l(5) =   2

     atomic species   valence    mass     pseudopotential
        Sn            14.00   118.71000     Sn( 1.00)
        O              6.00    15.99900     O ( 1.00)

      4 Sym. Ops. (no inversion) found



   Cartesian axes

     site n.     atom                  positions (alat units)
         1           Sn  tau(   1) = (  -0.0003320  -0.0003320   0.0000000  )
         2           Sn  tau(   2) = (   0.4996675   0.4996675   0.3357989  )
         3           O   tau(   3) = (   0.8063692   0.1929618   0.3357989  )
         4           O   tau(   4) = (   0.1929618   0.8063692   0.3357989  )
         5           O   tau(   5) = (   0.3063705   0.3063705   0.0000000  )
         6           O   tau(   6) = (   0.6929630   0.6929630   0.0000000  )

     number of k points=  1200

     Number of k-points >= 100: set verbosity='high' to print them.

     Dense  grid:    44945 G-vectors     FFT dimensions: (  54,  54,  36)

     Estimated max dynamical RAM per process >       5.65 MB

     Estimated total dynamical RAM >     180.80 MB

     Check: negative/imaginary core charge=   -0.000002    0.000000

     The potential is recalculated from file :
     ./_ph0/SnO2-epw.save/charge-density.dat

     Starting wfc are   34 atomic wfcs

     Band Structure Calculation
     Davidson diagonalization with overlap

     ethr =  1.92E-11,  avg # of iterations = 12.2

     total cpu time spent up to now is      938.6 secs

     End of band structure calculation

     Number of k-points >= 100: set verbosity='high' to print the bands.

     highest occupied level (ev):     8.9024

     Writing output data file SnO2-epw.save

     Phonon dispersions for SnO2                                                

     bravais-lattice index     =            6
     lattice parameter (alat)  =       9.1370  a.u.
     unit-cell volume          =     512.3005 (a.u.)^3
     number of atoms/cell      =            6
     number of atomic types    =            2
     kinetic-energy cut-off    =      75.0000  Ry
     charge density cut-off    =     300.0000  Ry
     convergence threshold     =      1.0E-14
     beta                      =       0.7000
     number of iterations used =            4
     Exchange-correlation      = PBE ( 1  4  3  4 0 0)


     celldm(1)=    9.13703  celldm(2)=    1.00000  celldm(3)=    0.67160
     celldm(4)=    0.00000  celldm(5)=    0.00000  celldm(6)=    0.00000

     crystal axes: (cart. coord. in units of alat)
               a(1) = (  1.0000  0.0000  0.0000 )  
               a(2) = (  0.0000  1.0000  0.0000 )  
               a(3) = (  0.0000  0.0000  0.6716 )  

     reciprocal axes: (cart. coord. in units 2 pi/alat)
[...]

      iter #   7 total cpu time :104117.7 secs   av.it.:  14.0
      thresh= 1.643E-08 alpha_mix =  0.700 |ddv_scf|^2 =  2.078E-15

     End of self-consistent calculation

     Convergence has been achieved 


     Representation # 15 mode #  15

     Self-consistent Calculation

      iter #   1 total cpu time :104312.6 secs   av.it.:   7.1
      thresh= 1.000E-02 alpha_mix =  0.700 |ddv_scf|^2 =  5.389E-07

      iter #   2 total cpu time :104659.8 secs   av.it.:  14.2
      thresh= 7.341E-05 alpha_mix =  0.700 |ddv_scf|^2 =  2.711E-08

      iter #   3 total cpu time :104960.8 secs   av.it.:  14.4
      thresh= 1.646E-05 alpha_mix =  0.700 |ddv_scf|^2 =  1.097E-09

      iter #   4 total cpu time :105225.0 secs   av.it.:  14.0
      thresh= 3.311E-06 alpha_mix =  0.700 |ddv_scf|^2 =  1.469E-11

      iter #   5 total cpu time :105504.1 secs   av.it.:  14.1
      thresh= 3.832E-07 alpha_mix =  0.700 |ddv_scf|^2 =  3.601E-13

      iter #   6 total cpu time :105824.1 secs   av.it.:  14.1
      thresh= 6.001E-08 alpha_mix =  0.700 |ddv_scf|^2 =  2.699E-14

      iter #   7 total cpu time :106149.8 secs   av.it.:  14.0
      thresh= 1.643E-08 alpha_mix =  0.700 |ddv_scf|^2 =  2.078E-15

     End of self-consistent calculation

     Convergence has been achieved 


     Representation # 16 mode #  16

     Self-consistent Calculation

      iter #   1 total cpu time :106352.8 secs   av.it.:   7.1
      thresh= 1.000E-02 alpha_mix =  0.700 |ddv_scf|^2 =  5.389E-07

      iter #   2 total cpu time :106677.8 secs   av.it.:  14.2
      thresh= 7.341E-05 alpha_mix =  0.700 |ddv_scf|^2 =  2.711E-08

      iter #   3 total cpu time :107005.1 secs   av.it.:  14.4
      thresh= 1.646E-05 alpha_mix =  0.700 |ddv_scf|^2 =  1.097E-09

      iter #   4 total cpu time :107282.4 secs   av.it.:  14.0
      thresh= 3.311E-06 alpha_mix =  0.700 |ddv_scf|^2 =  1.469E-11

      iter #   5 total cpu time :107586.5 secs   av.it.:  14.1
      thresh= 3.832E-07 alpha_mix =  0.700 |ddv_scf|^2 =  3.601E-13

      iter #   6 total cpu time :107889.1 secs   av.it.:  14.1
      thresh= 6.001E-08 alpha_mix =  0.700 |ddv_scf|^2 =  2.699E-14

      iter #   7 total cpu time :108162.2 secs   av.it.:  14.0
      thresh= 1.643E-08 alpha_mix =  0.700 |ddv_scf|^2 =  2.078E-15

     End of self-consistent calculation

     Convergence has been achieved 


     Representation # 17 mode #  17

     Self-consistent Calculation

      iter #   1 total cpu time :108360.8 secs   av.it.:   7.1
      thresh= 1.000E-02 alpha_mix =  0.700 |ddv_scf|^2 =  5.389E-07

      iter #   2 total cpu time :108643.8 secs   av.it.:  14.2
      thresh= 7.341E-05 alpha_mix =  0.700 |ddv_scf|^2 =  2.710E-08

      iter #   3 total cpu time :108958.7 secs   av.it.:  14.4
      thresh= 1.646E-05 alpha_mix =  0.700 |ddv_scf|^2 =  1.097E-09

      iter #   4 total cpu time :109255.1 secs   av.it.:  14.0
      thresh= 3.311E-06 alpha_mix =  0.700 |ddv_scf|^2 =  1.469E-11

      iter #   5 total cpu time :109536.9 secs   av.it.:  14.1
      thresh= 3.832E-07 alpha_mix =  0.700 |ddv_scf|^2 =  3.602E-13

      iter #   6 total cpu time :109809.3 secs   av.it.:  14.1
      thresh= 6.002E-08 alpha_mix =  0.700 |ddv_scf|^2 =  2.699E-14

      iter #   7 total cpu time :110107.5 secs   av.it.:  14.0
      thresh= 1.643E-08 alpha_mix =  0.700 |ddv_scf|^2 =  2.078E-15

     End of self-consistent calculation

     Convergence has been achieved 


     Representation # 18 mode #  18

     Self-consistent Calculation

      iter #   1 total cpu time :110312.1 secs   av.it.:   7.9
      thresh= 1.000E-02 alpha_mix =  0.700 |ddv_scf|^2 =  2.213E-06

      iter #   2 total cpu time :110598.8 secs   av.it.:  14.0
      thresh= 1.488E-04 alpha_mix =  0.700 |ddv_scf|^2 =  4.018E-07

      iter #   3 total cpu time :110892.5 secs   av.it.:  13.7
      thresh= 6.339E-05 alpha_mix =  0.700 |ddv_scf|^2 =  1.096E-09

      iter #   4 total cpu time :111226.0 secs   av.it.:  13.8
      thresh= 3.311E-06 alpha_mix =  0.700 |ddv_scf|^2 =  4.172E-11

      iter #   5 total cpu time :111516.0 secs   av.it.:  13.9
      thresh= 6.459E-07 alpha_mix =  0.700 |ddv_scf|^2 =  2.008E-12

      iter #   6 total cpu time :111792.1 secs   av.it.:  13.8
      thresh= 1.417E-07 alpha_mix =  0.700 |ddv_scf|^2 =  4.360E-14

      iter #   7 total cpu time :112090.2 secs   av.it.:  14.1
      thresh= 2.088E-08 alpha_mix =  0.700 |ddv_scf|^2 =  1.455E-15

     End of self-consistent calculation

     Convergence has been achieved 
 
     Number of q in the star =    2
     List of q in the star:
          1   0.000000000   0.333333333   0.000000000
          2   0.333333333   0.000000000   0.000000000
     In addition there is the -q list: 
          1   0.000000000  -0.333333333   0.000000000
          2  -0.333333333   0.000000000   0.000000000

     Diagonalizing the dynamical matrix

     q = (    0.000000000   0.333333333   0.000000000 ) 

 **************************************************************************
     freq (    1) =       2.373216 [THz] =      79.161967 [cm-1]
     freq (    2) =       3.236828 [THz] =     107.968976 [cm-1]
     freq (    3) =       3.661641 [THz] =     122.139193 [cm-1]
     freq (    4) =       3.793478 [THz] =     126.536808 [cm-1]
     freq (    5) =       4.187415 [THz] =     139.677141 [cm-1]
     freq (    6) =       6.299993 [THz] =     210.145150 [cm-1]
     freq (    7) =       6.753333 [THz] =     225.266931 [cm-1]
     freq (    8) =       6.852003 [THz] =     228.558233 [cm-1]
     freq (    9) =       9.330278 [THz] =     311.224583 [cm-1]
     freq (   10) =       9.767398 [THz] =     325.805339 [cm-1]
     freq (   11) =      12.819670 [THz] =     427.618156 [cm-1]
     freq (   12) =      13.096845 [THz] =     436.863722 [cm-1]
     freq (   13) =      14.376861 [THz] =     479.560477 [cm-1]
     freq (   14) =      15.517445 [THz] =     517.606237 [cm-1]
     freq (   15) =      16.466416 [THz] =     549.260512 [cm-1]
     freq (   16) =      16.956448 [THz] =     565.606218 [cm-1]
     freq (   17) =      20.866599 [THz] =     696.034831 [cm-1]
     freq (   18) =      21.120800 [THz] =     704.514044 [cm-1]
 **************************************************************************

     Mode symmetry, C_s (m)     point group:

     freq (  1 -  1) =         79.2  [cm-1]   --> A''                
     freq (  2 -  2) =        108.0  [cm-1]   --> A'                 
     freq (  3 -  3) =        122.1  [cm-1]   --> A'                 
     freq (  4 -  4) =        126.5  [cm-1]   --> A''                
     freq (  5 -  5) =        139.7  [cm-1]   --> A'                 
     freq (  6 -  6) =        210.1  [cm-1]   --> A'                 
     freq (  7 -  7) =        225.3  [cm-1]   --> A'                 
     freq (  8 -  8) =        228.6  [cm-1]   --> A'                 
     freq (  9 -  9) =        311.2  [cm-1]   --> A'                 
     freq ( 10 - 10) =        325.8  [cm-1]   --> A'                 
     freq ( 11 - 11) =        427.6  [cm-1]   --> A''                
     freq ( 12 - 12) =        436.9  [cm-1]   --> A''                
     freq ( 13 - 13) =        479.6  [cm-1]   --> A''                
     freq ( 14 - 14) =        517.6  [cm-1]   --> A''                
     freq ( 15 - 15) =        549.3  [cm-1]   --> A'                 
     freq ( 16 - 16) =        565.6  [cm-1]   --> A'                 
     freq ( 17 - 17) =        696.0  [cm-1]   --> A'                 
     freq ( 18 - 18) =        704.5  [cm-1]   --> A'                 

     Calculation of q =    0.0000000   0.3333333   0.4963289
 
     Parallelization info
     --------------------
     sticks:   dense  smooth     PW     G-vecs:    dense   smooth      PW
     Min          62      62     19                 1404     1404     243
     Max          63      63     20                 1405     1405     246
     Sum        2001    2001    621                44945    44945    7815
 

     Title: 
     Phonon dispersions for SnO2                                                


     bravais-lattice index     =            6
     lattice parameter (alat)  =       9.1370  a.u.
     unit-cell volume          =     512.3005 (a.u.)^3
     number of atoms/cell      =            6
     number of atomic types    =            2
     number of electrons       =        52.00
     number of Kohn-Sham states=           26
     kinetic-energy cutoff     =      75.0000  Ry
     charge density cutoff     =     300.0000  Ry
     Exchange-correlation      = PBE ( 1  4  3  4 0 0)

     celldm(1)=   9.137033  celldm(2)=   1.000000  celldm(3)=   0.671598
     celldm(4)=   0.000000  celldm(5)=   0.000000  celldm(6)=   0.000000

     crystal axes: (cart. coord. in units of alat)
               a(1) = (   1.000000   0.000000   0.000000 )  
               a(2) = (   0.000000   1.000000   0.000000 )  
               a(3) = (   0.000000   0.000000   0.671598 )  

     reciprocal axes: (cart. coord. in units 2 pi/alat)
               b(1) = (  1.000000  0.000000  0.000000 )  
               b(2) = (  0.000000  1.000000  0.000000 )  
               b(3) = (  0.000000  0.000000  1.488987 )  


     PseudoPot. # 1 for Sn read from file:
     ../../Pseudo_potentials/Sn_PBE.upf
     MD5 check sum: 78e6386ae56e929f0568ae8bf606a80c
     Pseudo is Norm-conserving + core correction, Zval = 14.0
     Generated using ONCVPSP code by D. R. Hamann
     Using radial grid of 1628 points,  6 beta functions with: 
                l(1) =   0
                l(2) =   0
                l(3) =   1
                l(4) =   1
                l(5) =   2
                l(6) =   2

     PseudoPot. # 2 for O  read from file:
     ../../Pseudo_potentials/O_PBE.upf
     MD5 check sum: 3e3f909f7470e8921608ab6b1f57bbae
     Pseudo is Norm-conserving + core correction, Zval =  6.0
     Generated using ONCVPSP code by D. R. Hamann
     Using radial grid of  936 points,  5 beta functions with: 
                l(1) =   0
                l(2) =   0
                l(3) =   1
                l(4) =   1
                l(5) =   2

     atomic species   valence    mass     pseudopotential
        Sn            14.00   118.71000     Sn( 1.00)
        O              6.00    15.99900     O ( 1.00)

      4 Sym. Ops. (no inversion) found



   Cartesian axes

     site n.     atom                  positions (alat units)
         1           Sn  tau(   1) = (  -0.0003320  -0.0003320   0.0000000  )
         2           Sn  tau(   2) = (   0.4996675   0.4996675   0.3357989  )
         3           O   tau(   3) = (   0.8063692   0.1929618   0.3357989  )
         4           O   tau(   4) = (   0.1929618   0.8063692   0.3357989  )
         5           O   tau(   5) = (   0.3063705   0.3063705   0.0000000  )
         6           O   tau(   6) = (   0.6929630   0.6929630   0.0000000  )

     number of k points=  2000

     Number of k-points >= 100: set verbosity='high' to print them.

     Dense  grid:    44945 G-vectors     FFT dimensions: (  54,  54,  36)

     Estimated max dynamical RAM per process >       5.69 MB

     Estimated total dynamical RAM >     182.13 MB

     Check: negative/imaginary core charge=   -0.000002    0.000000

     The potential is recalculated from file :
     ./_ph0/SnO2-epw.save/charge-density.dat

     Starting wfc are   34 atomic wfcs

     Band Structure Calculation
     Davidson diagonalization with overlap

     ethr =  1.92E-11,  avg # of iterations = 12.2

     total cpu time spent up to now is     1749.5 secs

     End of band structure calculation

     Number of k-points >= 100: set verbosity='high' to print the bands.

     highest occupied level (ev):     8.9024

     Writing output data file SnO2-epw.save

     Phonon dispersions for SnO2                                                

     bravais-lattice index     =            6
     lattice parameter (alat)  =       9.1370  a.u.
     unit-cell volume          =     512.3005 (a.u.)^3
     number of atoms/cell      =            6
     number of atomic types    =            2
     kinetic-energy cut-off    =      75.0000  Ry
     charge density cut-off    =     300.0000  Ry
     convergence threshold     =      1.0E-14
     beta                      =       0.7000
     number of iterations used =            4
     Exchange-correlation      = PBE ( 1  4  3  4 0 0)


     celldm(1)=    9.13703  celldm(2)=    1.00000  celldm(3)=    0.67160
     celldm(4)=    0.00000  celldm(5)=    0.00000  celldm(6)=    0.00000

     crystal axes: (cart. coord. in units of alat)
               a(1) = (  1.0000  0.0000  0.0000 )  
               a(2) = (  0.0000  1.0000  0.0000 )  
               a(3) = (  0.0000  0.0000  0.6716 )  

     reciprocal axes: (cart. coord. in units 2 pi/alat)
               b(1) = (  1.0000  0.0000  0.0000 )  
               b(2) = (  0.0000  1.0000  0.0000 )  
               b(3) = (  0.0000  0.0000  1.4890 )  


     Atoms inside the unit cell: 

     Cartesian axes

     site n.  atom      mass           positions (alat units)
        1     Sn 118.7100   tau(    1) = (   -0.00033   -0.00033    0.00000  )
        2     Sn 118.7100   tau(    2) = (    0.49967    0.49967    0.33580  )
        3     O   15.9990   tau(    3) = (    0.80637    0.19296    0.33580  )
        4     O   15.9990   tau(    4) = (    0.19296    0.80637    0.33580  )
        5     O   15.9990   tau(    5) = (    0.30637    0.30637    0.00000  )
        6     O   15.9990   tau(    6) = (    0.69296    0.69296    0.00000  )

     Computing dynamical matrix for 
                    q = (   0.0000000   0.3333333   0.4963289 )
 
     No symmetry!

     G cutoff =  634.4127  (   1405 G-vectors)     FFT grid: ( 54, 54, 36)
     number of k points=  2000

     PseudoPot. # 1 for Sn read from file:
     ../../Pseudo_potentials/Sn_PBE.upf
     MD5 check sum: 78e6386ae56e929f0568ae8bf606a80c
     Pseudo is Norm-conserving + core correction, Zval = 14.0
     Generated using ONCVPSP code by D. R. Hamann
     Using radial grid of 1628 points,  6 beta functions with: 
                l(1) =   0
                l(2) =   0
                l(3) =   1
                l(4) =   1
                l(5) =   2
                l(6) =   2

     PseudoPot. # 2 for O  read from file:
     ../../Pseudo_potentials/O_PBE.upf
     MD5 check sum: 3e3f909f7470e8921608ab6b1f57bbae
     Pseudo is Norm-conserving + core correction, Zval =  6.0
     Generated using ONCVPSP code by D. R. Hamann
     Using radial grid of  936 points,  5 beta functions with: 
                l(1) =   0
                l(2) =   0
                l(3) =   1
                l(4) =   1
                l(5) =   2

     Mode symmetry, C_1 (1)     point group:


     Atomic displacements:
     There are  18 irreducible representations

     Representation     1      1 modes -A  To be done

     Representation     2      1 modes -A  To be done

     Representation     3      1 modes -A  To be done

     Representation     4      1 modes -A  To be done

     Representation     5      1 modes -A  To be done

     Representation     6      1 modes -A  To be done

     Representation     7      1 modes -A  To be done

     Representation     8      1 modes -A  To be done

     Representation     9      1 modes -A  To be done

     Representation    10      1 modes -A  To be done

     Representation    11      1 modes -A  To be done

     Representation    12      1 modes -A  To be done

     Representation    13      1 modes -A  To be done

     Representation    14      1 modes -A  To be done

     Representation    15      1 modes -A  To be done

     Representation    16      1 modes -A  To be done

     Representation    17      1 modes -A  To be done

     Representation    18      1 modes -A  To be done



     Alpha used in Ewald sum =   2.7000
     PHONON       :     1d    6h37m CPU        1d    7h23m WALL



     Representation #  1 mode #   1

     Self-consistent Calculation

      iter #   1 total cpu time :113300.1 secs   av.it.:   8.1
      thresh= 1.000E-02 alpha_mix =  0.700 |ddv_scf|^2 =  5.242E-06

      iter #   2 total cpu time :113819.9 secs   av.it.:  14.3
      thresh= 2.290E-04 alpha_mix =  0.700 |ddv_scf|^2 =  1.038E-05

      iter #   3 total cpu time :114229.0 secs   av.it.:  12.6
      thresh= 3.221E-04 alpha_mix =  0.700 |ddv_scf|^2 =  2.379E-07

      iter #   4 total cpu time :114670.7 secs   av.it.:  13.9
      thresh= 4.878E-05 alpha_mix =  0.700 |ddv_scf|^2 =  2.253E-08

      iter #   5 total cpu time :115181.1 secs   av.it.:  13.5
      thresh= 1.501E-05 alpha_mix =  0.700 |ddv_scf|^2 =  1.105E-09

      iter #   6 total cpu time :115628.1 secs   av.it.:  13.9
      thresh= 3.325E-06 alpha_mix =  0.700 |ddv_scf|^2 =  9.682E-11

      iter #   7 total cpu time :116082.9 secs   av.it.:  14.3
      thresh= 9.840E-07 alpha_mix =  0.700 |ddv_scf|^2 =  1.420E-11

      iter #   8 total cpu time :116522.9 secs   av.it.:  14.1
      thresh= 3.769E-07 alpha_mix =  0.700 |ddv_scf|^2 =  6.835E-13

      iter #   9 total cpu time :117013.0 secs   av.it.:  14.9
      thresh= 8.267E-08 alpha_mix =  0.700 |ddv_scf|^2 =  2.239E-13

      iter #  10 total cpu time :117477.1 secs   av.it.:  14.4
      thresh= 4.732E-08 alpha_mix =  0.700 |ddv_scf|^2 =  1.365E-13

      iter #  11 total cpu time :117943.0 secs   av.it.:  13.8
      thresh= 3.695E-08 alpha_mix =  0.700 |ddv_scf|^2 =  1.500E-14

      iter #  12 total cpu time :118425.6 secs   av.it.:  13.8
      thresh= 1.225E-08 alpha_mix =  0.700 |ddv_scf|^2 =  8.736E-15

     End of self-consistent calculation

     Convergence has been achieved 


     Representation #  2 mode #   2

     Self-consistent Calculation

      iter #   1 total cpu time :118763.7 secs   av.it.:   9.1
      thresh= 1.000E-02 alpha_mix =  0.700 |ddv_scf|^2 =  2.321E-05

      iter #   2 total cpu time :119242.9 secs   av.it.:  14.4
      thresh= 4.818E-04 alpha_mix =  0.700 |ddv_scf|^2 =  5.589E-05

      iter #   3 total cpu time :119674.5 secs   av.it.:  12.8
      thresh= 7.476E-04 alpha_mix =  0.700 |ddv_scf|^2 =  8.228E-07

      iter #   4 total cpu time :120139.8 secs   av.it.:  13.9
      thresh= 9.071E-05 alpha_mix =  0.700 |ddv_scf|^2 =  2.121E-08

      iter #   5 total cpu time :120621.4 secs   av.it.:  14.0
      thresh= 1.456E-05 alpha_mix =  0.700 |ddv_scf|^2 =  5.191E-09

      iter #   6 total cpu time :121090.8 secs   av.it.:  13.7
      thresh= 7.205E-06 alpha_mix =  0.700 |ddv_scf|^2 =  4.828E-10

      iter #   7 total cpu time :121562.1 secs   av.it.:  14.1
      thresh= 2.197E-06 alpha_mix =  0.700 |ddv_scf|^2 =  3.265E-11

      iter #   8 total cpu time :122034.1 secs   av.it.:  14.0
      thresh= 5.714E-07 alpha_mix =  0.700 |ddv_scf|^2 =  3.693E-12

      iter #   9 total cpu time :122546.7 secs   av.it.:  14.5
      thresh= 1.922E-07 alpha_mix =  0.700 |ddv_scf|^2 =  1.414E-12

      iter #  10 total cpu time :123025.9 secs   av.it.:  14.4
      thresh= 1.189E-07 alpha_mix =  0.700 |ddv_scf|^2 =  4.259E-13

      iter #  11 total cpu time :123508.2 secs   av.it.:  14.1
      thresh= 6.526E-08 alpha_mix =  0.700 |ddv_scf|^2 =  7.933E-14

      iter #  12 total cpu time :123969.2 secs   av.it.:  13.4
      thresh= 2.817E-08 alpha_mix =  0.700 |ddv_scf|^2 =  7.426E-15

     End of self-consistent calculation

     Convergence has been achieved 


     Representation #  3 mode #   3

     Self-consistent Calculation

      iter #   1 total cpu time :124275.0 secs   av.it.:   8.0
      thresh= 1.000E-02 alpha_mix =  0.700 |ddv_scf|^2 =  2.741E-06

      iter #   2 total cpu time :124812.1 secs   av.it.:  14.6
      thresh= 1.655E-04 alpha_mix =  0.700 |ddv_scf|^2 =  3.088E-06

      iter #   3 total cpu time :125247.6 secs   av.it.:  13.4
      thresh= 1.757E-04 alpha_mix =  0.700 |ddv_scf|^2 =  2.366E-07

      iter #   4 total cpu time :125726.9 secs   av.it.:  13.6
      thresh= 4.864E-05 alpha_mix =  0.700 |ddv_scf|^2 =  1.256E-08
