
     Program PWSCF v.6.2.2 starts on  8May2018 at 11:57: 6 

     This program is part of the open-source Quantum ESPRESSO suite
     for quantum simulation of materials; please cite
         "P. Giannozzi et al., J. Phys.:Condens. Matter 21 395502 (2009);
         "P. Giannozzi et al., J. Phys.:Condens. Matter 29 465901 (2017);
          URL http://www.quantum-espresso.org", 
     in publications or presentations arising from this work. More details at
     http://www.quantum-espresso.org/quote

     Parallel version (MPI), running on     4 processors

     MPI processes distributed on     1 nodes
     R & G space division:  proc/nbgrp/npool/nimage =       4
     Waiting for input...
     Reading input from standard input
Warning: card  &IONS ignored
Warning: card  / ignored
Warning: card  &CELL ignored
Warning: card  / ignored

     Current dimensions of program PWSCF are:
     Max number of different atomic species (ntypx) = 10
     Max number of k-points (npk) =  40000
     Max angular momentum in pseudopotentials (lmaxx) =  3

     Subspace diagonalization in iterative solution of the eigenvalue problem:
     a serial algorithm will be used

 
     Parallelization info
     --------------------
     sticks:   dense  smooth     PW     G-vecs:    dense   smooth      PW
     Min         500     500    147                11236    11236    1788
     Max         501     501    149                11237    11237    1789
     Sum        2001    2001    593                44945    44945    7155
 


     bravais-lattice index     =            6
     lattice parameter (alat)  =       9.1370  a.u.
     unit-cell volume          =     512.3005 (a.u.)^3
     number of atoms/cell      =            6
     number of atomic types    =            2
     number of electrons       =        52.00
     number of Kohn-Sham states=           26
     kinetic-energy cutoff     =      75.0000  Ry
     charge density cutoff     =     300.0000  Ry
     convergence threshold     =      1.0E-20
     mixing beta               =       0.7000
     number of iterations used =            8  plain     mixing
     Exchange-correlation      = PBE ( 1  4  3  4 0 0)

     celldm(1)=   9.137033  celldm(2)=   0.000000  celldm(3)=   0.671598
     celldm(4)=   0.000000  celldm(5)=   0.000000  celldm(6)=   0.000000

     crystal axes: (cart. coord. in units of alat)
               a(1) = (   1.000000   0.000000   0.000000 )  
               a(2) = (   0.000000   1.000000   0.000000 )  
               a(3) = (   0.000000   0.000000   0.671598 )  

     reciprocal axes: (cart. coord. in units 2 pi/alat)
               b(1) = (  1.000000  0.000000  0.000000 )  
               b(2) = (  0.000000  1.000000  0.000000 )  
               b(3) = (  0.000000  0.000000  1.488987 )  


     PseudoPot. # 1 for Sn read from file:
     ../../Pseudo_potentials/Sn_PBE.upf
     MD5 check sum: 78e6386ae56e929f0568ae8bf606a80c
     Pseudo is Norm-conserving + core correction, Zval = 14.0
     Generated using ONCVPSP code by D. R. Hamann
     Using radial grid of 1628 points,  6 beta functions with: 
                l(1) =   0
                l(2) =   0
                l(3) =   1
                l(4) =   1
                l(5) =   2
                l(6) =   2

     PseudoPot. # 2 for O  read from file:
     ../../Pseudo_potentials/O_PBE.upf
     MD5 check sum: 3e3f909f7470e8921608ab6b1f57bbae
     Pseudo is Norm-conserving + core correction, Zval =  6.0
     Generated using ONCVPSP code by D. R. Hamann
     Using radial grid of  936 points,  5 beta functions with: 
                l(1) =   0
                l(2) =   0
                l(3) =   1
                l(4) =   1
                l(5) =   2

     atomic species   valence    mass     pseudopotential
        Sn            14.00   118.71000     Sn( 1.00)
        O              6.00    15.99900     O ( 1.00)

      4 Sym. Ops. (no inversion) found



   Cartesian axes

     site n.     atom                  positions (alat units)
         1           Sn  tau(   1) = (  -0.0003320  -0.0003320   0.0000000  )
         2           Sn  tau(   2) = (   0.4996675   0.4996675   0.3357989  )
         3           O   tau(   3) = (   0.8063692   0.1929618   0.3357989  )
         4           O   tau(   4) = (   0.1929618   0.8063692   0.3357989  )
         5           O   tau(   5) = (   0.3063705   0.3063705   0.0000000  )
         6           O   tau(   6) = (   0.6929630   0.6929630   0.0000000  )

     number of k points=   186

     Number of k-points >= 100: set verbosity='high' to print them.

     Dense  grid:    44945 G-vectors     FFT dimensions: (  54,  54,  36)

     Estimated max dynamical RAM per process >     121.89 MB

     Estimated total dynamical RAM >     487.56 MB

     Check: negative/imaginary core charge=   -0.000002    0.000000

     Initial potential from superposition of free atoms

     starting charge   51.99690, renormalised to   52.00000
     Starting wfc are   34 randomized atomic wfcs

     total cpu time spent up to now is       16.0 secs

     Self-consistent Calculation

     iteration #  1     ecut=    75.00 Ry     beta= 0.70
     Davidson diagonalization with overlap
     ethr =  1.00E-02,  avg # of iterations =  2.0

     total cpu time spent up to now is       47.5 secs

     total energy              =    -446.84449912 Ry
     Harris-Foulkes estimate   =    -448.02990421 Ry
     estimated scf accuracy    <       1.60770804 Ry

     iteration #  2     ecut=    75.00 Ry     beta= 0.70
     Davidson diagonalization with overlap
     ethr =  3.09E-03,  avg # of iterations =  3.1

     total cpu time spent up to now is       88.2 secs

     total energy              =    -447.25439646 Ry
     Harris-Foulkes estimate   =    -448.07201711 Ry
     estimated scf accuracy    <       1.69253321 Ry

     iteration #  3     ecut=    75.00 Ry     beta= 0.70
     Davidson diagonalization with overlap
     ethr =  3.09E-03,  avg # of iterations =  3.0

     total cpu time spent up to now is      126.4 secs

     total energy              =    -447.58561644 Ry
     Harris-Foulkes estimate   =    -447.58628931 Ry
     estimated scf accuracy    <       0.00609418 Ry

     iteration #  4     ecut=    75.00 Ry     beta= 0.70
     Davidson diagonalization with overlap
     ethr =  1.17E-05,  avg # of iterations =  3.0

     total cpu time spent up to now is      169.1 secs

     total energy              =    -447.58918061 Ry
     Harris-Foulkes estimate   =    -447.58944852 Ry
     estimated scf accuracy    <       0.00056594 Ry

     iteration #  5     ecut=    75.00 Ry     beta= 0.70
     Davidson diagonalization with overlap
     ethr =  1.09E-06,  avg # of iterations =  2.1

     total cpu time spent up to now is      199.5 secs

     total energy              =    -447.58921207 Ry
     Harris-Foulkes estimate   =    -447.58922772 Ry
     estimated scf accuracy    <       0.00004338 Ry

     iteration #  6     ecut=    75.00 Ry     beta= 0.70
     Davidson diagonalization with overlap
     ethr =  8.34E-08,  avg # of iterations =  3.5

     total cpu time spent up to now is      245.6 secs

     total energy              =    -447.58922759 Ry
     Harris-Foulkes estimate   =    -447.58923003 Ry
     estimated scf accuracy    <       0.00000644 Ry

     iteration #  7     ecut=    75.00 Ry     beta= 0.70
     Davidson diagonalization with overlap
     ethr =  1.24E-08,  avg # of iterations =  3.0

     total cpu time spent up to now is      285.4 secs

     total energy              =    -447.58931610 Ry
     Harris-Foulkes estimate   =    -447.58931675 Ry
     estimated scf accuracy    <       0.00000184 Ry

     iteration #  8     ecut=    75.00 Ry     beta= 0.70
     Davidson diagonalization with overlap
     ethr =  3.53E-09,  avg # of iterations =  3.2

     total cpu time spent up to now is      323.6 secs

     total energy              =    -447.58931639 Ry
     Harris-Foulkes estimate   =    -447.58931650 Ry
     estimated scf accuracy    <       0.00000030 Ry

     iteration #  9     ecut=    75.00 Ry     beta= 0.70
     Davidson diagonalization with overlap
     ethr =  5.73E-10,  avg # of iterations =  2.6

     total cpu time spent up to now is      359.9 secs

     total energy              =    -447.58931641 Ry
     Harris-Foulkes estimate   =    -447.58931643 Ry
     estimated scf accuracy    <       0.00000003 Ry

     iteration # 10     ecut=    75.00 Ry     beta= 0.70
     Davidson diagonalization with overlap
     ethr =  5.53E-11,  avg # of iterations =  3.0

     total cpu time spent up to now is      398.2 secs

     total energy              =    -447.58931642 Ry
     Harris-Foulkes estimate   =    -447.58931642 Ry
     estimated scf accuracy    <          4.9E-09 Ry

     iteration # 11     ecut=    75.00 Ry     beta= 0.70
     Davidson diagonalization with overlap
     ethr =  9.51E-12,  avg # of iterations =  2.4

     total cpu time spent up to now is      434.9 secs

     total energy              =    -447.58931642 Ry
     Harris-Foulkes estimate   =    -447.58931642 Ry
     estimated scf accuracy    <          9.9E-11 Ry

     iteration # 12     ecut=    75.00 Ry     beta= 0.70
     Davidson diagonalization with overlap
     ethr =  1.90E-13,  avg # of iterations =  3.4

     total cpu time spent up to now is      481.4 secs

     total energy              =    -447.58931642 Ry
     Harris-Foulkes estimate   =    -447.58931642 Ry
     estimated scf accuracy    <          1.4E-11 Ry

     iteration # 13     ecut=    75.00 Ry     beta= 0.70
     Davidson diagonalization with overlap
     ethr =  1.00E-13,  avg # of iterations =  2.0

     total cpu time spent up to now is      513.3 secs

     total energy              =    -447.58931642 Ry
     Harris-Foulkes estimate   =    -447.58931642 Ry
     estimated scf accuracy    <          2.4E-12 Ry

     iteration # 14     ecut=    75.00 Ry     beta= 0.70
     Davidson diagonalization with overlap
     ethr =  1.00E-13,  avg # of iterations =  1.0

     total cpu time spent up to now is      542.0 secs

     total energy              =    -447.58931642 Ry
     Harris-Foulkes estimate   =    -447.58931642 Ry
     estimated scf accuracy    <          2.0E-13 Ry

     iteration # 15     ecut=    75.00 Ry     beta= 0.70
     Davidson diagonalization with overlap
     ethr =  1.00E-13,  avg # of iterations =  1.0

     total cpu time spent up to now is      570.7 secs

     total energy              =    -447.58931642 Ry
     Harris-Foulkes estimate   =    -447.58931642 Ry
     estimated scf accuracy    <          1.3E-14 Ry

     iteration # 16     ecut=    75.00 Ry     beta= 0.70
     Davidson diagonalization with overlap
     ethr =  1.00E-13,  avg # of iterations =  1.0

     total cpu time spent up to now is      599.4 secs

     total energy              =    -447.58931642 Ry
     Harris-Foulkes estimate   =    -447.58931642 Ry
     estimated scf accuracy    <          1.6E-14 Ry

     iteration # 17     ecut=    75.00 Ry     beta= 0.70
     Davidson diagonalization with overlap
     ethr =  1.00E-13,  avg # of iterations =  1.0

     total cpu time spent up to now is      628.1 secs

     total energy              =    -447.58931642 Ry
     Harris-Foulkes estimate   =    -447.58931642 Ry
     estimated scf accuracy    <          4.0E-15 Ry

     iteration # 18     ecut=    75.00 Ry     beta= 0.70
     Davidson diagonalization with overlap
     ethr =  1.00E-13,  avg # of iterations =  1.0

     total cpu time spent up to now is      656.8 secs

     total energy              =    -447.58931642 Ry
     Harris-Foulkes estimate   =    -447.58931642 Ry
     estimated scf accuracy    <          3.2E-16 Ry

     iteration # 19     ecut=    75.00 Ry     beta= 0.70
     Davidson diagonalization with overlap
     ethr =  1.00E-13,  avg # of iterations =  1.0

     total cpu time spent up to now is      685.5 secs

     total energy              =    -447.58931642 Ry
     Harris-Foulkes estimate   =    -447.58931642 Ry
     estimated scf accuracy    <          1.3E-16 Ry

     iteration # 20     ecut=    75.00 Ry     beta= 0.70
     Davidson diagonalization with overlap
     ethr =  1.00E-13,  avg # of iterations =  1.0

     total cpu time spent up to now is      714.2 secs

     total energy              =    -447.58931642 Ry
     Harris-Foulkes estimate   =    -447.58931642 Ry
     estimated scf accuracy    <          2.1E-17 Ry

     iteration # 21     ecut=    75.00 Ry     beta= 0.70
     Davidson diagonalization with overlap
     ethr =  1.00E-13,  avg # of iterations =  1.0

     total cpu time spent up to now is      742.8 secs

     total energy              =    -447.58931642 Ry
     Harris-Foulkes estimate   =    -447.58931642 Ry
     estimated scf accuracy    <          2.7E-18 Ry

     iteration # 22     ecut=    75.00 Ry     beta= 0.70
     Davidson diagonalization with overlap
     ethr =  1.00E-13,  avg # of iterations =  1.0

     total cpu time spent up to now is      771.5 secs

     total energy              =    -447.58931642 Ry
     Harris-Foulkes estimate   =    -447.58931642 Ry
     estimated scf accuracy    <          4.3E-18 Ry

     iteration # 23     ecut=    75.00 Ry     beta= 0.70
     Davidson diagonalization with overlap
     ethr =  1.00E-13,  avg # of iterations =  1.0

     total cpu time spent up to now is      800.2 secs

     total energy              =    -447.58931642 Ry
     Harris-Foulkes estimate   =    -447.58931642 Ry
     estimated scf accuracy    <          2.3E-18 Ry

     iteration # 24     ecut=    75.00 Ry     beta= 0.70
     Davidson diagonalization with overlap
     ethr =  1.00E-13,  avg # of iterations =  1.0

     total cpu time spent up to now is      828.9 secs

     total energy              =    -447.58931642 Ry
     Harris-Foulkes estimate   =    -447.58931642 Ry
     estimated scf accuracy    <          2.0E-18 Ry

     iteration # 25     ecut=    75.00 Ry     beta= 0.70
     Davidson diagonalization with overlap
     ethr =  1.00E-13,  avg # of iterations =  1.0

     total cpu time spent up to now is      856.9 secs

     total energy              =    -447.58931642 Ry
     Harris-Foulkes estimate   =    -447.58931642 Ry
     estimated scf accuracy    <          7.9E-18 Ry

     iteration # 26     ecut=    75.00 Ry     beta= 0.70
     Davidson diagonalization with overlap
     ethr =  1.00E-13,  avg # of iterations =  1.0

     total cpu time spent up to now is      884.9 secs

     total energy              =    -447.58931642 Ry
     Harris-Foulkes estimate   =    -447.58931642 Ry
     estimated scf accuracy    <          1.3E-17 Ry

     iteration # 27     ecut=    75.00 Ry     beta= 0.70
     Davidson diagonalization with overlap
     ethr =  1.00E-13,  avg # of iterations =  1.0

     total cpu time spent up to now is      912.8 secs

     total energy              =    -447.58931642 Ry
     Harris-Foulkes estimate   =    -447.58931642 Ry
     estimated scf accuracy    <          2.7E-18 Ry

     iteration # 28     ecut=    75.00 Ry     beta= 0.70
     Davidson diagonalization with overlap
     ethr =  1.00E-13,  avg # of iterations =  1.0

     total cpu time spent up to now is      940.8 secs

     total energy              =    -447.58931642 Ry
     Harris-Foulkes estimate   =    -447.58931642 Ry
     estimated scf accuracy    <          2.0E-18 Ry

     iteration # 29     ecut=    75.00 Ry     beta= 0.70
     Davidson diagonalization with overlap
     ethr =  1.00E-13,  avg # of iterations =  1.0

     total cpu time spent up to now is      968.8 secs

     total energy              =    -447.58931642 Ry
     Harris-Foulkes estimate   =    -447.58931642 Ry
     estimated scf accuracy    <          1.7E-18 Ry

     iteration # 30     ecut=    75.00 Ry     beta= 0.70
     Davidson diagonalization with overlap
     ethr =  1.00E-13,  avg # of iterations =  1.0

     total cpu time spent up to now is      996.7 secs

     total energy              =    -447.58931642 Ry
     Harris-Foulkes estimate   =    -447.58931642 Ry
     estimated scf accuracy    <          1.1E-18 Ry

     iteration # 31     ecut=    75.00 Ry     beta= 0.70
     Davidson diagonalization with overlap
     ethr =  1.00E-13,  avg # of iterations =  1.0

     total cpu time spent up to now is     1024.7 secs

     total energy              =    -447.58931642 Ry
     Harris-Foulkes estimate   =    -447.58931642 Ry
     estimated scf accuracy    <          3.0E-19 Ry

     iteration # 32     ecut=    75.00 Ry     beta= 0.70
     Davidson diagonalization with overlap
     ethr =  1.00E-13,  avg # of iterations =  1.0

     total cpu time spent up to now is     1052.7 secs

     total energy              =    -447.58931642 Ry
     Harris-Foulkes estimate   =    -447.58931642 Ry
     estimated scf accuracy    <          1.6E-20 Ry

     iteration # 33     ecut=    75.00 Ry     beta= 0.70
     Davidson diagonalization with overlap
     ethr =  1.00E-13,  avg # of iterations =  1.0

     total cpu time spent up to now is     1080.6 secs

     total energy              =    -447.58931642 Ry
     Harris-Foulkes estimate   =    -447.58931642 Ry
     estimated scf accuracy    <          1.3E-20 Ry

     iteration # 34     ecut=    75.00 Ry     beta= 0.70
     Davidson diagonalization with overlap
     ethr =  1.00E-13,  avg # of iterations =  1.0

     total cpu time spent up to now is     1108.6 secs

     End of self-consistent calculation

     Number of k-points >= 100: set verbosity='high' to print the bands.

     highest occupied level (ev):     8.9024

!    total energy              =    -447.58931642 Ry
     Harris-Foulkes estimate   =    -447.58931642 Ry
     estimated scf accuracy    <          1.2E-21 Ry

     The total energy is the sum of the following terms:

     one-electron contribution =    -125.64517762 Ry
     hartree contribution      =     101.52747873 Ry
     xc contribution           =    -122.07157780 Ry
     ewald contribution        =    -301.40003973 Ry

     convergence has been achieved in  34 iterations

     Forces acting on atoms (cartesian axes, Ry/au):

     atom    1 type  1   force =     0.00000148    0.00000148    0.00000000
     atom    2 type  1   force =     0.00000472    0.00000472    0.00000000
     atom    3 type  2   force =     0.00004366   -0.00004717   -0.00000000
     atom    4 type  2   force =    -0.00004717    0.00004366    0.00000000
     atom    5 type  2   force =     0.00004408    0.00004408    0.00000000
     atom    6 type  2   force =    -0.00004677   -0.00004677    0.00000000

     Total force =     0.000129     Total SCF correction =     0.000000


     Computing stress (Cartesian axis) and pressure

          total   stress  (Ry/bohr**3)                   (kbar)     P=   -4.77
  -0.00003301  -0.00000000   0.00000000         -4.86     -0.00      0.00
  -0.00000000  -0.00003301  -0.00000000         -0.00     -4.86     -0.00
   0.00000000   0.00000000  -0.00003126          0.00      0.00     -4.60


     Writing output data file SnO2-epw.save
 
     init_run     :     15.18s CPU     15.35s WALL (       1 calls)
     electrons    :   1088.04s CPU   1092.70s WALL (       1 calls)
     forces       :      4.06s CPU      4.06s WALL (       1 calls)
     stress       :     11.04s CPU     11.06s WALL (       1 calls)

     Called by init_run:
     wfcinit      :     14.68s CPU     14.84s WALL (       1 calls)
     potinit      :      0.13s CPU      0.13s WALL (       1 calls)
     hinit0       :      0.22s CPU      0.23s WALL (       1 calls)

     Called by electrons:
     c_bands      :    948.15s CPU    952.05s WALL (      34 calls)
     sum_band     :    138.34s CPU    139.04s WALL (      34 calls)
     v_of_rho     :      1.16s CPU      1.16s WALL (      35 calls)
     mix_rho      :      0.41s CPU      0.40s WALL (      34 calls)

     Called by c_bands:
     init_us_2    :     17.42s CPU     17.56s WALL (   13206 calls)
     cegterg      :    851.26s CPU    854.84s WALL (    6324 calls)

     Called by sum_band:

     Called by *egterg:
     h_psi        :    708.13s CPU    711.66s WALL (   17162 calls)
     g_psi        :      3.83s CPU      3.76s WALL (   10652 calls)
     cdiaghg      :     38.43s CPU     38.38s WALL (   16976 calls)

     Called by h_psi:
     h_psi:pot    :    704.24s CPU    707.66s WALL (   17162 calls)
     h_psi:calbec :     60.18s CPU     60.29s WALL (   17162 calls)
     vloc_psi     :    580.31s CPU    583.42s WALL (   17162 calls)
     add_vuspsi   :     63.67s CPU     63.84s WALL (   17162 calls)

     General routines
     calbec       :     63.84s CPU     63.96s WALL (   18092 calls)
     fft          :      0.48s CPU      0.48s WALL (     375 calls)
     ffts         :      0.04s CPU      0.04s WALL (      34 calls)
     fftw         :    655.50s CPU    660.60s WALL (  918208 calls)
 
     Parallel routines
     fft_scatt_xy :     48.19s CPU     49.85s WALL (  918617 calls)
     fft_scatt_yz :    149.54s CPU    155.37s WALL (  918617 calls)
 
     PWSCF        : 18m39.83s CPU    18m50.21s WALL

 
   This run was terminated on:  12:15:56   8May2018            

=------------------------------------------------------------------------------=
   JOB DONE.
=------------------------------------------------------------------------------=
