
     Program PWSCF v.6.2.2 starts on 16Apr2018 at 16:38:33 

     This program is part of the open-source Quantum ESPRESSO suite
     for quantum simulation of materials; please cite
         "P. Giannozzi et al., J. Phys.:Condens. Matter 21 395502 (2009);
         "P. Giannozzi et al., J. Phys.:Condens. Matter 29 465901 (2017);
          URL http://www.quantum-espresso.org", 
     in publications or presentations arising from this work. More details at
     http://www.quantum-espresso.org/quote

     Parallel version (MPI), running on     2 processors

     MPI processes distributed on     1 nodes
     R & G space division:  proc/nbgrp/npool/nimage =       2
     Waiting for input...
     Reading input from standard input
Warning: card  &IONS ignored
Warning: card  / ignored
Warning: card  &CELL ignored
Warning: card  / ignored

     Current dimensions of program PWSCF are:
     Max number of different atomic species (ntypx) = 10
     Max number of k-points (npk) =  40000
     Max angular momentum in pseudopotentials (lmaxx) =  3

     Subspace diagonalization in iterative solution of the eigenvalue problem:
     a serial algorithm will be used

 
     Parallelization info
     --------------------
     sticks:   dense  smooth     PW     G-vecs:    dense   smooth      PW
     Min        1268    1268    362                32131    32131    4960
     Max        1269    1269    363                32132    32132    4961
     Sum        2537    2537    725                64263    64263    9921
 


     bravais-lattice index     =            6
     lattice parameter (alat)  =       9.1370  a.u.
     unit-cell volume          =     513.8164 (a.u.)^3
     number of atoms/cell      =            6
     number of atomic types    =            2
     number of electrons       =        52.00
     number of Kohn-Sham states=           26
     kinetic-energy cutoff     =      95.0000  Ry
     charge density cutoff     =     380.0000  Ry
     convergence threshold     =      1.0E-20
     mixing beta               =       0.7000
     number of iterations used =            8  plain     mixing
     Exchange-correlation      = PBE ( 1  4  3  4 0 0)

     celldm(1)=   9.137010  celldm(2)=   0.000000  celldm(3)=   0.673590
     celldm(4)=   0.000000  celldm(5)=   0.000000  celldm(6)=   0.000000

     crystal axes: (cart. coord. in units of alat)
               a(1) = (   1.000000   0.000000   0.000000 )  
               a(2) = (   0.000000   1.000000   0.000000 )  
               a(3) = (   0.000000   0.000000   0.673590 )  

     reciprocal axes: (cart. coord. in units 2 pi/alat)
               b(1) = (  1.000000  0.000000  0.000000 )  
               b(2) = (  0.000000  1.000000  0.000000 )  
               b(3) = (  0.000000  0.000000  1.484583 )  


     PseudoPot. # 1 for Sn read from file:
     ../../../Pseudo_potentials/Sn_PBE.upf
     MD5 check sum: 78e6386ae56e929f0568ae8bf606a80c
     Pseudo is Norm-conserving + core correction, Zval = 14.0
     Generated using ONCVPSP code by D. R. Hamann
     Using radial grid of 1628 points,  6 beta functions with: 
                l(1) =   0
                l(2) =   0
                l(3) =   1
                l(4) =   1
                l(5) =   2
                l(6) =   2

     PseudoPot. # 2 for O  read from file:
     ../../../Pseudo_potentials/O_PBE.upf
     MD5 check sum: 3e3f909f7470e8921608ab6b1f57bbae
     Pseudo is Norm-conserving + core correction, Zval =  6.0
     Generated using ONCVPSP code by D. R. Hamann
     Using radial grid of  936 points,  5 beta functions with: 
                l(1) =   0
                l(2) =   0
                l(3) =   1
                l(4) =   1
                l(5) =   2

     atomic species   valence    mass     pseudopotential
        Sn            14.00   118.71000     Sn( 1.00)
        O              6.00    15.99900     O ( 1.00)

      4 Sym. Ops. (no inversion) found



   Cartesian axes

     site n.     atom                  positions (alat units)
         1           Sn  tau(   1) = (   0.0000000   0.0000000   0.0000000  )
         2           Sn  tau(   2) = (   0.5000000   0.5000000   0.3367950  )
         3           O   tau(   3) = (   0.8060000   0.1930000   0.3367950  )
         4           O   tau(   4) = (   0.1930000   0.8060000   0.3367950  )
         5           O   tau(   5) = (   0.3060000   0.3060000   0.0000000  )
         6           O   tau(   6) = (   0.6930000   0.6930000   0.0000000  )

     number of k points=  2041

     Number of k-points >= 100: set verbosity='high' to print them.

     Dense  grid:    64263 G-vectors     FFT dimensions: (  60,  60,  40)

     Estimated max dynamical RAM per process >       3.22 GB

     Estimated total dynamical RAM >       6.44 GB

     Initial potential from superposition of free atoms

     starting charge   51.99690, renormalised to   52.00000
     Starting wfc are   34 randomized atomic wfcs

     total cpu time spent up to now is      406.5 secs

     Self-consistent Calculation

     iteration #  1     ecut=    95.00 Ry     beta= 0.70
     Davidson diagonalization with overlap
     ethr =  1.00E-02,  avg # of iterations =  2.0

     total cpu time spent up to now is     1312.1 secs

     total energy              =    -446.84207810 Ry
     Harris-Foulkes estimate   =    -448.03109148 Ry
     estimated scf accuracy    <       1.61145990 Ry

     iteration #  2     ecut=    95.00 Ry     beta= 0.70
     Davidson diagonalization with overlap
     ethr =  3.10E-03,  avg # of iterations =  3.0

     total cpu time spent up to now is     2447.5 secs

     total energy              =    -447.25144622 Ry
     Harris-Foulkes estimate   =    -448.07809279 Ry
     estimated scf accuracy    <       1.71425185 Ry

     iteration #  3     ecut=    95.00 Ry     beta= 0.70
     Davidson diagonalization with overlap
     ethr =  3.10E-03,  avg # of iterations =  3.0

     total cpu time spent up to now is     3518.8 secs

     total energy              =    -447.58639050 Ry
     Harris-Foulkes estimate   =    -447.58706458 Ry
     estimated scf accuracy    <       0.00611597 Ry

     iteration #  4     ecut=    95.00 Ry     beta= 0.70
     Davidson diagonalization with overlap
     ethr =  1.18E-05,  avg # of iterations =  3.0

     total cpu time spent up to now is     4720.9 secs

     total energy              =    -447.59004895 Ry
     Harris-Foulkes estimate   =    -447.59033273 Ry
     estimated scf accuracy    <       0.00059792 Ry

     iteration #  5     ecut=    95.00 Ry     beta= 0.70
     Davidson diagonalization with overlap
     ethr =  1.15E-06,  avg # of iterations =  2.0

     total cpu time spent up to now is     5595.9 secs

     total energy              =    -447.59017054 Ry
     Harris-Foulkes estimate   =    -447.59018860 Ry
     estimated scf accuracy    <       0.00004896 Ry

     iteration #  6     ecut=    95.00 Ry     beta= 0.70
     Davidson diagonalization with overlap
     ethr =  9.42E-08,  avg # of iterations =  3.3

     total cpu time spent up to now is     6803.7 secs

     total energy              =    -447.59038950 Ry
     Harris-Foulkes estimate   =    -447.59039216 Ry
     estimated scf accuracy    <       0.00000751 Ry

     iteration #  7     ecut=    95.00 Ry     beta= 0.70
     Davidson diagonalization with overlap
     ethr =  1.44E-08,  avg # of iterations =  3.4

     total cpu time spent up to now is     7895.7 secs

     total energy              =    -447.59043588 Ry
     Harris-Foulkes estimate   =    -447.59043685 Ry
     estimated scf accuracy    <       0.00000245 Ry

     iteration #  8     ecut=    95.00 Ry     beta= 0.70
     Davidson diagonalization with overlap
     ethr =  4.72E-09,  avg # of iterations =  3.0

     total cpu time spent up to now is     8966.7 secs

     total energy              =    -447.59043642 Ry
     Harris-Foulkes estimate   =    -447.59043650 Ry
     estimated scf accuracy    <       0.00000019 Ry

     iteration #  9     ecut=    95.00 Ry     beta= 0.70
     Davidson diagonalization with overlap
     ethr =  3.73E-10,  avg # of iterations =  2.0

     total cpu time spent up to now is     9939.5 secs

     total energy              =    -447.59043644 Ry
     Harris-Foulkes estimate   =    -447.59043645 Ry
     estimated scf accuracy    <       0.00000002 Ry

     iteration # 10     ecut=    95.00 Ry     beta= 0.70
     Davidson diagonalization with overlap
     ethr =  4.53E-11,  avg # of iterations =  3.0

     total cpu time spent up to now is    11001.0 secs

     total energy              =    -447.59043644 Ry
     Harris-Foulkes estimate   =    -447.59043644 Ry
     estimated scf accuracy    <          2.5E-09 Ry

     iteration # 11     ecut=    95.00 Ry     beta= 0.70
     Davidson diagonalization with overlap
     ethr =  4.76E-12,  avg # of iterations =  3.2

     total cpu time spent up to now is    12148.3 secs

     total energy              =    -447.59043644 Ry
     Harris-Foulkes estimate   =    -447.59043644 Ry
     estimated scf accuracy    <          1.9E-10 Ry

     iteration # 12     ecut=    95.00 Ry     beta= 0.70
     Davidson diagonalization with overlap
     ethr =  3.70E-13,  avg # of iterations =  3.1

     total cpu time spent up to now is    13225.3 secs

     total energy              =    -447.59043644 Ry
     Harris-Foulkes estimate   =    -447.59043644 Ry
     estimated scf accuracy    <          5.9E-12 Ry

     iteration # 13     ecut=    95.00 Ry     beta= 0.70
     Davidson diagonalization with overlap
     ethr =  1.00E-13,  avg # of iterations =  1.2

     total cpu time spent up to now is    14061.1 secs

     total energy              =    -447.59043644 Ry
     Harris-Foulkes estimate   =    -447.59043644 Ry
     estimated scf accuracy    <          1.4E-12 Ry

     iteration # 14     ecut=    95.00 Ry     beta= 0.70
     Davidson diagonalization with overlap
     ethr =  1.00E-13,  avg # of iterations =  1.0

     total cpu time spent up to now is    14888.3 secs

     total energy              =    -447.59043644 Ry
     Harris-Foulkes estimate   =    -447.59043644 Ry
     estimated scf accuracy    <          2.1E-13 Ry

     iteration # 15     ecut=    95.00 Ry     beta= 0.70
     Davidson diagonalization with overlap
     ethr =  1.00E-13,  avg # of iterations =  1.0

     total cpu time spent up to now is    15718.1 secs

     total energy              =    -447.59043644 Ry
     Harris-Foulkes estimate   =    -447.59043644 Ry
     estimated scf accuracy    <          2.5E-14 Ry

     iteration # 16     ecut=    95.00 Ry     beta= 0.70
     Davidson diagonalization with overlap
     ethr =  1.00E-13,  avg # of iterations =  1.0

     total cpu time spent up to now is    16544.8 secs

     total energy              =    -447.59043644 Ry
     Harris-Foulkes estimate   =    -447.59043644 Ry
     estimated scf accuracy    <          4.6E-15 Ry

     iteration # 17     ecut=    95.00 Ry     beta= 0.70
     Davidson diagonalization with overlap
     ethr =  1.00E-13,  avg # of iterations =  1.0

     total cpu time spent up to now is    17373.1 secs

     total energy              =    -447.59043644 Ry
     Harris-Foulkes estimate   =    -447.59043644 Ry
     estimated scf accuracy    <          1.2E-15 Ry

     iteration # 18     ecut=    95.00 Ry     beta= 0.70
     Davidson diagonalization with overlap
     ethr =  1.00E-13,  avg # of iterations =  1.0

     total cpu time spent up to now is    18197.9 secs

     total energy              =    -447.59043644 Ry
     Harris-Foulkes estimate   =    -447.59043644 Ry
     estimated scf accuracy    <          4.0E-16 Ry

     iteration # 19     ecut=    95.00 Ry     beta= 0.70
     Davidson diagonalization with overlap
     ethr =  1.00E-13,  avg # of iterations =  1.0

     total cpu time spent up to now is    19023.8 secs

     total energy              =    -447.59043644 Ry
     Harris-Foulkes estimate   =    -447.59043644 Ry
     estimated scf accuracy    <          8.4E-17 Ry

     iteration # 20     ecut=    95.00 Ry     beta= 0.70
     Davidson diagonalization with overlap
     ethr =  1.00E-13,  avg # of iterations =  1.0

     total cpu time spent up to now is    19848.9 secs

     total energy              =    -447.59043644 Ry
     Harris-Foulkes estimate   =    -447.59043644 Ry
     estimated scf accuracy    <          4.2E-17 Ry

     iteration # 21     ecut=    95.00 Ry     beta= 0.70
     Davidson diagonalization with overlap
     ethr =  1.00E-13,  avg # of iterations =  1.0

     total cpu time spent up to now is    20677.3 secs

     total energy              =    -447.59043644 Ry
     Harris-Foulkes estimate   =    -447.59043644 Ry
     estimated scf accuracy    <          3.7E-18 Ry

     iteration # 22     ecut=    95.00 Ry     beta= 0.70
     Davidson diagonalization with overlap
     ethr =  1.00E-13,  avg # of iterations =  1.0

     total cpu time spent up to now is    21504.1 secs

     total energy              =    -447.59043644 Ry
     Harris-Foulkes estimate   =    -447.59043644 Ry
     estimated scf accuracy    <          4.6E-18 Ry

     iteration # 23     ecut=    95.00 Ry     beta= 0.70
     Davidson diagonalization with overlap
     ethr =  1.00E-13,  avg # of iterations =  1.0

     total cpu time spent up to now is    22341.8 secs

     total energy              =    -447.59043644 Ry
     Harris-Foulkes estimate   =    -447.59043644 Ry
     estimated scf accuracy    <          1.3E-18 Ry

     iteration # 24     ecut=    95.00 Ry     beta= 0.70
     Davidson diagonalization with overlap
     ethr =  1.00E-13,  avg # of iterations =  1.0

     total cpu time spent up to now is    23175.4 secs

     total energy              =    -447.59043644 Ry
     Harris-Foulkes estimate   =    -447.59043644 Ry
     estimated scf accuracy    <          6.2E-19 Ry

     iteration # 25     ecut=    95.00 Ry     beta= 0.70
     Davidson diagonalization with overlap
     ethr =  1.00E-13,  avg # of iterations =  1.0

     total cpu time spent up to now is    24045.1 secs

     total energy              =    -447.59043644 Ry
     Harris-Foulkes estimate   =    -447.59043644 Ry
     estimated scf accuracy    <          7.0E-19 Ry

     iteration # 26     ecut=    95.00 Ry     beta= 0.70
     Davidson diagonalization with overlap
     ethr =  1.00E-13,  avg # of iterations =  1.0

     total cpu time spent up to now is    24922.1 secs

     total energy              =    -447.59043644 Ry
     Harris-Foulkes estimate   =    -447.59043644 Ry
     estimated scf accuracy    <          3.2E-19 Ry

     iteration # 27     ecut=    95.00 Ry     beta= 0.70
     Davidson diagonalization with overlap
     ethr =  1.00E-13,  avg # of iterations =  1.0

     total cpu time spent up to now is    25793.6 secs

     total energy              =    -447.59043644 Ry
     Harris-Foulkes estimate   =    -447.59043644 Ry
     estimated scf accuracy    <          4.9E-19 Ry

     iteration # 28     ecut=    95.00 Ry     beta= 0.70
     Davidson diagonalization with overlap
     ethr =  1.00E-13,  avg # of iterations =  1.0

     total cpu time spent up to now is    26667.6 secs

     total energy              =    -447.59043644 Ry
     Harris-Foulkes estimate   =    -447.59043644 Ry
     estimated scf accuracy    <          4.6E-20 Ry

     iteration # 29     ecut=    95.00 Ry     beta= 0.70
     Davidson diagonalization with overlap
     ethr =  1.00E-13,  avg # of iterations =  1.0

     total cpu time spent up to now is    27533.0 secs

     total energy              =    -447.59043644 Ry
     Harris-Foulkes estimate   =    -447.59043644 Ry
     estimated scf accuracy    <          1.5E-20 Ry

     iteration # 30     ecut=    95.00 Ry     beta= 0.70
     Davidson diagonalization with overlap
     ethr =  1.00E-13,  avg # of iterations =  1.0

     total cpu time spent up to now is    28409.8 secs

     total energy              =    -447.59043644 Ry
     Harris-Foulkes estimate   =    -447.59043644 Ry
     estimated scf accuracy    <          6.9E-20 Ry

     iteration # 31     ecut=    95.00 Ry     beta= 0.70
     Davidson diagonalization with overlap
     ethr =  1.00E-13,  avg # of iterations =  1.0

     total cpu time spent up to now is    29273.2 secs

     total energy              =    -447.59043644 Ry
     Harris-Foulkes estimate   =    -447.59043644 Ry
     estimated scf accuracy    <          1.8E-20 Ry

     iteration # 32     ecut=    95.00 Ry     beta= 0.70
     Davidson diagonalization with overlap
     ethr =  1.00E-13,  avg # of iterations =  1.0

     total cpu time spent up to now is    30155.2 secs

     End of self-consistent calculation

     Number of k-points >= 100: set verbosity='high' to print the bands.

     highest occupied level (ev):     8.8620

!    total energy              =    -447.59043644 Ry
     Harris-Foulkes estimate   =    -447.59043644 Ry
     estimated scf accuracy    <          3.3E-22 Ry

     The total energy is the sum of the following terms:

     one-electron contribution =    -125.86908218 Ry
     hartree contribution      =     101.55371846 Ry
     xc contribution           =    -122.05630581 Ry
     ewald contribution        =    -301.21876691 Ry

     convergence has been achieved in  32 iterations

     Forces acting on atoms (cartesian axes, Ry/au):

     atom    1 type  1   force =    -0.00103037   -0.00103037    0.00000000
     atom    2 type  1   force =    -0.00126926   -0.00126926    0.00000000
     atom    3 type  2   force =     0.00120222   -0.00120476    0.00000000
     atom    4 type  2   force =    -0.00120476    0.00120222    0.00000000
     atom    5 type  2   force =     0.00235978    0.00235978    0.00000000
     atom    6 type  2   force =    -0.00005761   -0.00005761    0.00000000

     Total force =     0.004720     Total SCF correction =     0.000000


     Computing stress (Cartesian axis) and pressure

          total   stress  (Ry/bohr**3)                   (kbar)     P=   -6.72
  -0.00002803   0.00000011   0.00000000         -4.12      0.02      0.00
   0.00000011  -0.00002803   0.00000000          0.02     -4.12      0.00
  -0.00000000   0.00000000  -0.00008107         -0.00      0.00    -11.93


     Writing output data file SnO2.save
 
     init_run     :    402.65s CPU    405.88s WALL (       1 calls)
     electrons    :  29637.39s CPU  29748.83s WALL (       1 calls)
     forces       :     87.90s CPU     88.09s WALL (       1 calls)
     stress       :    312.96s CPU    313.43s WALL (       1 calls)

     Called by init_run:
     wfcinit      :    400.92s CPU    404.12s WALL (       1 calls)
     potinit      :      0.21s CPU      0.21s WALL (       1 calls)
     hinit0       :      1.44s CPU      1.45s WALL (       1 calls)

     Called by electrons:
     c_bands      :  25345.76s CPU  25441.80s WALL (      32 calls)
     sum_band     :   4288.48s CPU   4303.31s WALL (      32 calls)
     v_of_rho     :      2.47s CPU      2.48s WALL (      33 calls)
     mix_rho      :      0.68s CPU      0.68s WALL (      32 calls)

     Called by c_bands:
     init_us_2    :    638.26s CPU    640.24s WALL (  136747 calls)
     cegterg      :  22255.05s CPU  22340.27s WALL (   65312 calls)

     Called by sum_band:

     Called by *egterg:
     h_psi        :  19786.29s CPU  19857.01s WALL (  178219 calls)
     g_psi        :    228.96s CPU    229.34s WALL (  110866 calls)
     cdiaghg      :    319.12s CPU    319.84s WALL (  176178 calls)

     Called by h_psi:
     h_psi:pot    :  19667.98s CPU  19737.59s WALL (  178219 calls)
     h_psi:calbec :   1064.26s CPU   1065.96s WALL (  178219 calls)
     vloc_psi     :  17567.04s CPU  17632.35s WALL (  178219 calls)
     add_vuspsi   :   1035.54s CPU   1038.03s WALL (  178219 calls)

     General routines
     calbec       :   1135.73s CPU   1137.48s WALL (  188424 calls)
     fft          :      1.24s CPU      1.26s WALL (     355 calls)
     ffts         :      0.11s CPU      0.11s WALL (      32 calls)
     fftw         :  19730.78s CPU  19813.83s WALL ( 9496924 calls)
 
     Parallel routines
     fft_scatt_xy :   1528.46s CPU   1526.86s WALL ( 9497311 calls)
     fft_scatt_yz :   2859.12s CPU   2888.91s WALL ( 9497311 calls)
 
     PWSCF        :     8h27m CPU        8h30m WALL

 
   This run was terminated on:   1: 9:30  17Apr2018            

=------------------------------------------------------------------------------=
   JOB DONE.
=------------------------------------------------------------------------------=
