
     Program PWSCF v.6.2.2 starts on  6Apr2018 at 21:55: 1 

     This program is part of the open-source Quantum ESPRESSO suite
     for quantum simulation of materials; please cite
         "P. Giannozzi et al., J. Phys.:Condens. Matter 21 395502 (2009);
         "P. Giannozzi et al., J. Phys.:Condens. Matter 29 465901 (2017);
          URL http://www.quantum-espresso.org", 
     in publications or presentations arising from this work. More details at
     http://www.quantum-espresso.org/quote

     Parallel version (MPI), running on     2 processors

     MPI processes distributed on     1 nodes
     R & G space division:  proc/nbgrp/npool/nimage =       2
     Reading input from Conv_etot-k2.in
Warning: card &IONS ignored
Warning: card / ignored
Warning: card &CELL ignored
Warning: card / ignored

     Current dimensions of program PWSCF are:
     Max number of different atomic species (ntypx) = 10
     Max number of k-points (npk) =  40000
     Max angular momentum in pseudopotentials (lmaxx) =  3

     Subspace diagonalization in iterative solution of the eigenvalue problem:
     a serial algorithm will be used

 
     Parallelization info
     --------------------
     sticks:   dense  smooth     PW     G-vecs:    dense   smooth      PW
     Min         200     200     68                 2007     2007     408
     Max         201     201     69                 2008     2008     409
     Sum         401     401    137                 4015     4015     817
 


     bravais-lattice index     =            6
     lattice parameter (alat)  =       9.1100  a.u.
     unit-cell volume          =     506.5589 (a.u.)^3
     number of atoms/cell      =            6
     number of atomic types    =            2
     number of electrons       =        52.00
     number of Kohn-Sham states=           26
     kinetic-energy cutoff     =      15.0000  Ry
     charge density cutoff     =      60.0000  Ry
     convergence threshold     =      1.0E-12
     mixing beta               =       0.7000
     number of iterations used =            8  plain     mixing
     Exchange-correlation      = PBE ( 1  4  3  4 0 0)

     celldm(1)=   9.110000  celldm(2)=   0.000000  celldm(3)=   0.670000
     celldm(4)=   0.000000  celldm(5)=   0.000000  celldm(6)=   0.000000

     crystal axes: (cart. coord. in units of alat)
               a(1) = (   1.000000   0.000000   0.000000 )  
               a(2) = (   0.000000   1.000000   0.000000 )  
               a(3) = (   0.000000   0.000000   0.670000 )  

     reciprocal axes: (cart. coord. in units 2 pi/alat)
               b(1) = (  1.000000  0.000000  0.000000 )  
               b(2) = (  0.000000  1.000000  0.000000 )  
               b(3) = (  0.000000  0.000000  1.492537 )  


     PseudoPot. # 1 for Sn read from file:
     ../Pseudo_potentials/Sn_PBE.upf
     MD5 check sum: 78e6386ae56e929f0568ae8bf606a80c
     Pseudo is Norm-conserving + core correction, Zval = 14.0
     Generated using ONCVPSP code by D. R. Hamann
     Using radial grid of 1628 points,  6 beta functions with: 
                l(1) =   0
                l(2) =   0
                l(3) =   1
                l(4) =   1
                l(5) =   2
                l(6) =   2

     PseudoPot. # 2 for O  read from file:
     ../Pseudo_potentials/O_PBE.upf
     MD5 check sum: 3e3f909f7470e8921608ab6b1f57bbae
     Pseudo is Norm-conserving + core correction, Zval =  6.0
     Generated using ONCVPSP code by D. R. Hamann
     Using radial grid of  936 points,  5 beta functions with: 
                l(1) =   0
                l(2) =   0
                l(3) =   1
                l(4) =   1
                l(5) =   2

     atomic species   valence    mass     pseudopotential
        Sn            14.00   118.71000     Sn( 1.00)
        O              6.00    15.99900     O ( 1.00)

      4 Sym. Ops. (no inversion) found



   Cartesian axes

     site n.     atom                  positions (alat units)
         1           Sn  tau(   1) = (   0.0000000   0.0000000   0.0000000  )
         2           Sn  tau(   2) = (   0.5000000   0.5000000   0.3350000  )
         3           O   tau(   3) = (   0.8060000   0.1930000   0.3350000  )
         4           O   tau(   4) = (   0.1930000   0.8060000   0.3350000  )
         5           O   tau(   5) = (   0.3060000   0.3060000   0.0000000  )
         6           O   tau(   6) = (   0.6930000   0.6930000   0.0000000  )

     number of k points=   301

     Number of k-points >= 100: set verbosity='high' to print them.

     Dense  grid:     4015 G-vectors     FFT dimensions: (  24,  24,  15)

     Estimated max dynamical RAM per process >      34.38 MB

     Estimated total dynamical RAM >      68.76 MB

     Check: negative/imaginary core charge=   -0.005277    0.000000

     Initial potential from superposition of free atoms
     Check: negative starting charge=   -0.053732

     starting charge   51.99690, renormalised to   52.00000

     negative rho (up, down):  5.373E-02 0.000E+00
     Starting wfc are   34 randomized atomic wfcs

     total cpu time spent up to now is        3.7 secs

     Self-consistent Calculation

     iteration #  1     ecut=    15.00 Ry     beta= 0.70
     Davidson diagonalization with overlap
     ethr =  1.00E-02,  avg # of iterations =  3.0

     negative rho (up, down):  1.590E-02 0.000E+00

     total cpu time spent up to now is       15.0 secs

     total energy              =    -393.39333336 Ry
     Harris-Foulkes estimate   =    -412.18005262 Ry
     estimated scf accuracy    <      24.21086633 Ry

     iteration #  2     ecut=    15.00 Ry     beta= 0.70
     Davidson diagonalization with overlap
     ethr =  1.00E-02,  avg # of iterations =  3.3

     negative rho (up, down):  4.804E-03 0.000E+00

     total cpu time spent up to now is       28.2 secs

     total energy              =    -398.11940782 Ry
     Harris-Foulkes estimate   =    -400.45743142 Ry
     estimated scf accuracy    <       3.75963198 Ry

     iteration #  3     ecut=    15.00 Ry     beta= 0.70
     Davidson diagonalization with overlap
     ethr =  7.23E-03,  avg # of iterations =  3.4

     negative rho (up, down):  9.885E-04 0.000E+00

     total cpu time spent up to now is       40.3 secs

     total energy              =    -398.95847768 Ry
     Harris-Foulkes estimate   =    -399.39396362 Ry
     estimated scf accuracy    <       0.79295605 Ry

     iteration #  4     ecut=    15.00 Ry     beta= 0.70
     Davidson diagonalization with overlap
     ethr =  1.52E-03,  avg # of iterations =  2.7

     total cpu time spent up to now is       50.5 secs

     total energy              =    -399.12492933 Ry
     Harris-Foulkes estimate   =    -399.13903663 Ry
     estimated scf accuracy    <       0.03253912 Ry

     iteration #  5     ecut=    15.00 Ry     beta= 0.70
     Davidson diagonalization with overlap
     ethr =  6.26E-05,  avg # of iterations =  2.6

     total cpu time spent up to now is       59.8 secs

     total energy              =    -399.13129653 Ry
     Harris-Foulkes estimate   =    -399.13134178 Ry
     estimated scf accuracy    <       0.00045024 Ry

     iteration #  6     ecut=    15.00 Ry     beta= 0.70
     Davidson diagonalization with overlap
     ethr =  8.66E-07,  avg # of iterations =  3.6

     total cpu time spent up to now is       71.6 secs

     total energy              =    -399.13181165 Ry
     Harris-Foulkes estimate   =    -399.13185546 Ry
     estimated scf accuracy    <       0.00009222 Ry

     iteration #  7     ecut=    15.00 Ry     beta= 0.70
     Davidson diagonalization with overlap
     ethr =  1.77E-07,  avg # of iterations =  3.6

     total cpu time spent up to now is       83.5 secs

     total energy              =    -399.13181892 Ry
     Harris-Foulkes estimate   =    -399.13185565 Ry
     estimated scf accuracy    <       0.00008834 Ry

     iteration #  8     ecut=    15.00 Ry     beta= 0.70
     Davidson diagonalization with overlap
     ethr =  1.70E-07,  avg # of iterations =  3.4

     total cpu time spent up to now is       93.8 secs

     total energy              =    -399.13183547 Ry
     Harris-Foulkes estimate   =    -399.13183776 Ry
     estimated scf accuracy    <       0.00000494 Ry

     iteration #  9     ecut=    15.00 Ry     beta= 0.70
     Davidson diagonalization with overlap
     ethr =  9.51E-09,  avg # of iterations =  3.4

     total cpu time spent up to now is      104.2 secs

     total energy              =    -399.13183649 Ry
     Harris-Foulkes estimate   =    -399.13183682 Ry
     estimated scf accuracy    <       0.00000052 Ry

     iteration # 10     ecut=    15.00 Ry     beta= 0.70
     Davidson diagonalization with overlap
     ethr =  1.01E-09,  avg # of iterations =  3.0

     total cpu time spent up to now is      114.4 secs

     total energy              =    -399.13183658 Ry
     Harris-Foulkes estimate   =    -399.13183661 Ry
     estimated scf accuracy    <       0.00000003 Ry

     iteration # 11     ecut=    15.00 Ry     beta= 0.70
     Davidson diagonalization with overlap
     ethr =  6.65E-11,  avg # of iterations =  3.9

     total cpu time spent up to now is      126.4 secs

     total energy              =    -399.13183658 Ry
     Harris-Foulkes estimate   =    -399.13183660 Ry
     estimated scf accuracy    <       0.00000002 Ry

     iteration # 12     ecut=    15.00 Ry     beta= 0.70
     Davidson diagonalization with overlap
     ethr =  3.63E-11,  avg # of iterations =  3.2

     total cpu time spent up to now is      136.2 secs

     total energy              =    -399.13183659 Ry
     Harris-Foulkes estimate   =    -399.13183659 Ry
     estimated scf accuracy    <          1.6E-10 Ry

     iteration # 13     ecut=    15.00 Ry     beta= 0.70
     Davidson diagonalization with overlap
     ethr =  3.11E-13,  avg # of iterations =  3.4

     total cpu time spent up to now is      148.1 secs

     total energy              =    -399.13183659 Ry
     Harris-Foulkes estimate   =    -399.13183659 Ry
     estimated scf accuracy    <          5.1E-11 Ry

     iteration # 14     ecut=    15.00 Ry     beta= 0.70
     Davidson diagonalization with overlap
     ethr =  1.00E-13,  avg # of iterations =  2.2

     total cpu time spent up to now is      158.2 secs

     total energy              =    -399.13183659 Ry
     Harris-Foulkes estimate   =    -399.13183659 Ry
     estimated scf accuracy    <          1.9E-12 Ry

     iteration # 15     ecut=    15.00 Ry     beta= 0.70
     Davidson diagonalization with overlap
     ethr =  1.00E-13,  avg # of iterations =  1.0

     total cpu time spent up to now is      165.1 secs

     End of self-consistent calculation

     Number of k-points >= 100: set verbosity='high' to print the bands.

     highest occupied level (ev):    13.2876

!    total energy              =    -399.13183659 Ry
     Harris-Foulkes estimate   =    -399.13183659 Ry
     estimated scf accuracy    <          9.0E-14 Ry

     The total energy is the sum of the following terms:

     one-electron contribution =     -51.27047375 Ry
     hartree contribution      =      63.88731733 Ry
     xc contribution           =    -109.26734416 Ry
     ewald contribution        =    -302.48133600 Ry

     convergence has been achieved in  15 iterations

     Writing output data file SnO2.save
 
     init_run     :      3.26s CPU      3.43s WALL (       1 calls)
     electrons    :    156.09s CPU    161.38s WALL (       1 calls)

     Called by init_run:
     wfcinit      :      3.20s CPU      3.37s WALL (       1 calls)
     potinit      :      0.02s CPU      0.02s WALL (       1 calls)
     hinit0       :      0.04s CPU      0.05s WALL (       1 calls)

     Called by electrons:
     c_bands      :    142.68s CPU    147.26s WALL (      15 calls)
     sum_band     :     13.34s CPU     14.02s WALL (      15 calls)
     v_of_rho     :      0.06s CPU      0.06s WALL (      16 calls)
     mix_rho      :      0.01s CPU      0.01s WALL (      15 calls)

     Called by c_bands:
     init_us_2    :      0.90s CPU      2.32s WALL (    9331 calls)
     cegterg      :    132.06s CPU    135.27s WALL (    4515 calls)

     Called by sum_band:

     Called by *egterg:
     h_psi        :     81.48s CPU     84.22s WALL (   18537 calls)
     g_psi        :      0.43s CPU      1.20s WALL (   13721 calls)
     cdiaghg      :     39.66s CPU     38.75s WALL (   18236 calls)

     Called by h_psi:
     h_psi:pot    :     81.29s CPU     83.82s WALL (   18537 calls)
     h_psi:calbec :      6.83s CPU      6.25s WALL (   18537 calls)
     vloc_psi     :     73.25s CPU     72.27s WALL (   18537 calls)
     add_vuspsi   :      1.17s CPU      5.21s WALL (   18537 calls)

     General routines
     calbec       :      6.83s CPU      6.20s WALL (   18537 calls)
     fft          :      0.03s CPU      0.02s WALL (     161 calls)
     ffts         :      0.00s CPU      0.00s WALL (      15 calls)
     fftw         :     85.51s CPU     79.09s WALL (  783938 calls)
 
     Parallel routines
     fft_scatt_xy :      0.51s CPU      5.88s WALL (  784114 calls)
     fft_scatt_yz :     77.77s CPU     17.34s WALL (  784114 calls)
 
     PWSCF        :  2m39.88s CPU     2m47.03s WALL

 
   This run was terminated on:  21:57:48   6Apr2018            

=------------------------------------------------------------------------------=
   JOB DONE.
=------------------------------------------------------------------------------=
