
     Program PWSCF v.6.2.2 starts on  4Apr2018 at 21: 5: 1 

     This program is part of the open-source Quantum ESPRESSO suite
     for quantum simulation of materials; please cite
         "P. Giannozzi et al., J. Phys.:Condens. Matter 21 395502 (2009);
         "P. Giannozzi et al., J. Phys.:Condens. Matter 29 465901 (2017);
          URL http://www.quantum-espresso.org", 
     in publications or presentations arising from this work. More details at
     http://www.quantum-espresso.org/quote

     Parallel version (MPI), running on     2 processors

     MPI processes distributed on     1 nodes
     R & G space division:  proc/nbgrp/npool/nimage =       2
     Reading input from Conv_etot-k2.in
Warning: card &IONS ignored
Warning: card / ignored
Warning: card &CELL ignored
Warning: card / ignored

     Current dimensions of program PWSCF are:
     Max number of different atomic species (ntypx) = 10
     Max number of k-points (npk) =  40000
     Max angular momentum in pseudopotentials (lmaxx) =  3

     Subspace diagonalization in iterative solution of the eigenvalue problem:
     a serial algorithm will be used

 
     Parallelization info
     --------------------
     sticks:   dense  smooth     PW     G-vecs:    dense   smooth      PW
     Min         200     200     68                 2007     2007     408
     Max         201     201     69                 2008     2008     409
     Sum         401     401    137                 4015     4015     817
 


     bravais-lattice index     =            6
     lattice parameter (alat)  =       9.1100  a.u.
     unit-cell volume          =     506.5589 (a.u.)^3
     number of atoms/cell      =            6
     number of atomic types    =            2
     number of electrons       =        52.00
     number of Kohn-Sham states=           26
     kinetic-energy cutoff     =      15.0000  Ry
     charge density cutoff     =      60.0000  Ry
     convergence threshold     =      1.0E-12
     mixing beta               =       0.7000
     number of iterations used =            8  plain     mixing
     Exchange-correlation      = PBE ( 1  4  3  4 0 0)

     celldm(1)=   9.110000  celldm(2)=   0.000000  celldm(3)=   0.670000
     celldm(4)=   0.000000  celldm(5)=   0.000000  celldm(6)=   0.000000

     crystal axes: (cart. coord. in units of alat)
               a(1) = (   1.000000   0.000000   0.000000 )  
               a(2) = (   0.000000   1.000000   0.000000 )  
               a(3) = (   0.000000   0.000000   0.670000 )  

     reciprocal axes: (cart. coord. in units 2 pi/alat)
               b(1) = (  1.000000  0.000000  0.000000 )  
               b(2) = (  0.000000  1.000000  0.000000 )  
               b(3) = (  0.000000  0.000000  1.492537 )  


     PseudoPot. # 1 for Sn read from file:
     ../Pseudo_potentials/Sn_PBE.upf
     MD5 check sum: 78e6386ae56e929f0568ae8bf606a80c
     Pseudo is Norm-conserving + core correction, Zval = 14.0
     Generated using ONCVPSP code by D. R. Hamann
     Using radial grid of 1628 points,  6 beta functions with: 
                l(1) =   0
                l(2) =   0
                l(3) =   1
                l(4) =   1
                l(5) =   2
                l(6) =   2

     PseudoPot. # 2 for O  read from file:
     ../Pseudo_potentials/O_PBE.upf
     MD5 check sum: 3e3f909f7470e8921608ab6b1f57bbae
     Pseudo is Norm-conserving + core correction, Zval =  6.0
     Generated using ONCVPSP code by D. R. Hamann
     Using radial grid of  936 points,  5 beta functions with: 
                l(1) =   0
                l(2) =   0
                l(3) =   1
                l(4) =   1
                l(5) =   2

     atomic species   valence    mass     pseudopotential
        Sn            14.00   118.71000     Sn( 1.00)
        O              6.00    15.99900     O ( 1.00)

      4 Sym. Ops. (no inversion) found



   Cartesian axes

     site n.     atom                  positions (alat units)
         1           Sn  tau(   1) = (   0.0000000   0.0000000   0.0000000  )
         2           Sn  tau(   2) = (   0.5000000   0.5000000   0.3350000  )
         3           O   tau(   3) = (   0.8060000   0.1930000   0.3350000  )
         4           O   tau(   4) = (   0.1930000   0.8060000   0.3350000  )
         5           O   tau(   5) = (   0.3060000   0.3060000   0.0000000  )
         6           O   tau(   6) = (   0.6930000   0.6930000   0.0000000  )

     number of k points=    52
                       cart. coord. in units 2pi/alat
        k(    1) = (   0.0000000   0.0000000   0.0000000), wk =   0.0092593
        k(    2) = (   0.0000000   0.0000000   0.2487562), wk =   0.0185185
        k(    3) = (   0.0000000   0.0000000   0.4975124), wk =   0.0185185
        k(    4) = (   0.0000000   0.0000000  -0.7462687), wk =   0.0092593
        k(    5) = (   0.0000000   0.1666667   0.0000000), wk =   0.0370370
        k(    6) = (   0.0000000   0.1666667   0.2487562), wk =   0.0740741
        k(    7) = (   0.0000000   0.1666667   0.4975124), wk =   0.0740741
        k(    8) = (   0.0000000   0.1666667  -0.7462687), wk =   0.0370370
        k(    9) = (   0.0000000   0.3333333   0.0000000), wk =   0.0370370
        k(   10) = (   0.0000000   0.3333333   0.2487562), wk =   0.0740741
        k(   11) = (   0.0000000   0.3333333   0.4975124), wk =   0.0740741
        k(   12) = (   0.0000000   0.3333333  -0.7462687), wk =   0.0370370
        k(   13) = (   0.0000000  -0.5000000   0.0000000), wk =   0.0185185
        k(   14) = (   0.0000000  -0.5000000   0.2487562), wk =   0.0370370
        k(   15) = (   0.0000000  -0.5000000   0.4975124), wk =   0.0370370
        k(   16) = (   0.0000000  -0.5000000  -0.7462687), wk =   0.0185185
        k(   17) = (   0.1666667   0.1666667   0.0000000), wk =   0.0185185
        k(   18) = (   0.1666667   0.1666667   0.2487562), wk =   0.0370370
        k(   19) = (   0.1666667   0.1666667   0.4975124), wk =   0.0370370
        k(   20) = (   0.1666667   0.1666667  -0.7462687), wk =   0.0185185
        k(   21) = (   0.1666667   0.3333333   0.0000000), wk =   0.0370370
        k(   22) = (   0.1666667   0.3333333   0.2487562), wk =   0.0740741
        k(   23) = (   0.1666667   0.3333333   0.4975124), wk =   0.0740741
        k(   24) = (   0.1666667   0.3333333  -0.7462687), wk =   0.0370370
        k(   25) = (   0.1666667  -0.5000000   0.0000000), wk =   0.0370370
        k(   26) = (   0.1666667  -0.5000000   0.2487562), wk =   0.0740741
        k(   27) = (   0.1666667  -0.5000000   0.4975124), wk =   0.0740741
        k(   28) = (   0.1666667  -0.5000000  -0.7462687), wk =   0.0370370
        k(   29) = (   0.3333333   0.3333333   0.0000000), wk =   0.0185185
        k(   30) = (   0.3333333   0.3333333   0.2487562), wk =   0.0370370
        k(   31) = (   0.3333333   0.3333333   0.4975124), wk =   0.0370370
        k(   32) = (   0.3333333   0.3333333  -0.7462687), wk =   0.0185185
        k(   33) = (   0.3333333  -0.5000000   0.0000000), wk =   0.0370370
        k(   34) = (   0.3333333  -0.5000000   0.2487562), wk =   0.0740741
        k(   35) = (   0.3333333  -0.5000000   0.4975124), wk =   0.0740741
        k(   36) = (   0.3333333  -0.5000000  -0.7462687), wk =   0.0370370
        k(   37) = (  -0.5000000  -0.5000000   0.0000000), wk =   0.0092593
        k(   38) = (  -0.5000000  -0.5000000   0.2487562), wk =   0.0185185
        k(   39) = (  -0.5000000  -0.5000000   0.4975124), wk =   0.0185185
        k(   40) = (  -0.5000000  -0.5000000  -0.7462687), wk =   0.0092593
        k(   41) = (   0.1666667  -0.1666667   0.0000000), wk =   0.0185185
        k(   42) = (   0.1666667  -0.1666667   0.2487562), wk =   0.0370370
        k(   43) = (   0.1666667  -0.1666667   0.4975124), wk =   0.0370370
        k(   44) = (   0.1666667  -0.1666667  -0.7462687), wk =   0.0185185
        k(   45) = (   0.3333333  -0.1666667   0.0000000), wk =   0.0370370
        k(   46) = (   0.3333333  -0.1666667   0.2487562), wk =   0.0740741
        k(   47) = (   0.3333333  -0.1666667   0.4975124), wk =   0.0740741
        k(   48) = (   0.3333333  -0.1666667  -0.7462687), wk =   0.0370370
        k(   49) = (   0.3333333  -0.3333333   0.0000000), wk =   0.0185185
        k(   50) = (   0.3333333  -0.3333333   0.2487562), wk =   0.0370370
        k(   51) = (   0.3333333  -0.3333333   0.4975124), wk =   0.0370370
        k(   52) = (   0.3333333  -0.3333333  -0.7462687), wk =   0.0185185

     Dense  grid:     4015 G-vectors     FFT dimensions: (  24,  24,  15)

     Estimated max dynamical RAM per process >       9.88 MB

     Estimated total dynamical RAM >      19.77 MB

     Check: negative/imaginary core charge=   -0.005277    0.000000

     Initial potential from superposition of free atoms
     Check: negative starting charge=   -0.053732

     starting charge   51.99690, renormalised to   52.00000

     negative rho (up, down):  5.373E-02 0.000E+00
     Starting wfc are   34 randomized atomic wfcs

     total cpu time spent up to now is        0.7 secs

     Self-consistent Calculation

     iteration #  1     ecut=    15.00 Ry     beta= 0.70
     Davidson diagonalization with overlap
     ethr =  1.00E-02,  avg # of iterations =  3.1

     negative rho (up, down):  1.590E-02 0.000E+00

     total cpu time spent up to now is        2.0 secs

     total energy              =    -393.46819616 Ry
     Harris-Foulkes estimate   =    -412.21209546 Ry
     estimated scf accuracy    <      24.15779041 Ry

     iteration #  2     ecut=    15.00 Ry     beta= 0.70
     Davidson diagonalization with overlap
     ethr =  1.00E-02,  avg # of iterations =  3.4

     negative rho (up, down):  4.809E-03 0.000E+00

     total cpu time spent up to now is        3.5 secs

     total energy              =    -398.18492784 Ry
     Harris-Foulkes estimate   =    -400.51702013 Ry
     estimated scf accuracy    <       3.74911609 Ry

     iteration #  3     ecut=    15.00 Ry     beta= 0.70
     Davidson diagonalization with overlap
     ethr =  7.21E-03,  avg # of iterations =  3.4

     negative rho (up, down):  9.934E-04 0.000E+00

     total cpu time spent up to now is        4.9 secs

     total energy              =    -399.02285934 Ry
     Harris-Foulkes estimate   =    -399.45984964 Ry
     estimated scf accuracy    <       0.79595694 Ry

     iteration #  4     ecut=    15.00 Ry     beta= 0.70
     Davidson diagonalization with overlap
     ethr =  1.53E-03,  avg # of iterations =  2.6

     total cpu time spent up to now is        6.1 secs

     total energy              =    -399.18850469 Ry
     Harris-Foulkes estimate   =    -399.20271788 Ry
     estimated scf accuracy    <       0.03275267 Ry

     iteration #  5     ecut=    15.00 Ry     beta= 0.70
     Davidson diagonalization with overlap
     ethr =  6.30E-05,  avg # of iterations =  3.1

     total cpu time spent up to now is        7.2 secs

     total energy              =    -399.19383115 Ry
     Harris-Foulkes estimate   =    -399.19564348 Ry
     estimated scf accuracy    <       0.00286544 Ry

     iteration #  6     ecut=    15.00 Ry     beta= 0.70
     Davidson diagonalization with overlap
     ethr =  5.51E-06,  avg # of iterations =  4.0

     total cpu time spent up to now is        8.6 secs

     total energy              =    -399.19470105 Ry
     Harris-Foulkes estimate   =    -399.19671885 Ry
     estimated scf accuracy    <       0.00540808 Ry

     iteration #  7     ecut=    15.00 Ry     beta= 0.70
     Davidson diagonalization with overlap
     ethr =  5.51E-06,  avg # of iterations =  3.6

     total cpu time spent up to now is        9.9 secs

     total energy              =    -399.19562715 Ry
     Harris-Foulkes estimate   =    -399.19564445 Ry
     estimated scf accuracy    <       0.00004544 Ry

     iteration #  8     ecut=    15.00 Ry     beta= 0.70
     Davidson diagonalization with overlap
     ethr =  8.74E-08,  avg # of iterations =  3.6

     total cpu time spent up to now is       11.2 secs

     total energy              =    -399.19563559 Ry
     Harris-Foulkes estimate   =    -399.19564039 Ry
     estimated scf accuracy    <       0.00000855 Ry

     iteration #  9     ecut=    15.00 Ry     beta= 0.70
     Davidson diagonalization with overlap
     ethr =  1.64E-08,  avg # of iterations =  3.0

     total cpu time spent up to now is       12.4 secs

     total energy              =    -399.19563766 Ry
     Harris-Foulkes estimate   =    -399.19563795 Ry
     estimated scf accuracy    <       0.00000041 Ry

     iteration # 10     ecut=    15.00 Ry     beta= 0.70
     Davidson diagonalization with overlap
     ethr =  7.79E-10,  avg # of iterations =  3.1

     total cpu time spent up to now is       13.6 secs

     total energy              =    -399.19563772 Ry
     Harris-Foulkes estimate   =    -399.19563775 Ry
     estimated scf accuracy    <       0.00000003 Ry

     iteration # 11     ecut=    15.00 Ry     beta= 0.70
     Davidson diagonalization with overlap
     ethr =  4.84E-11,  avg # of iterations =  3.7

     total cpu time spent up to now is       15.1 secs

     total energy              =    -399.19565370 Ry
     Harris-Foulkes estimate   =    -399.19565377 Ry
     estimated scf accuracy    <       0.00003238 Ry

     iteration # 12     ecut=    15.00 Ry     beta= 0.70
     Davidson diagonalization with overlap
     ethr =  4.84E-11,  avg # of iterations =  2.2

     total cpu time spent up to now is       16.1 secs

     total energy              =    -399.19565359 Ry
     Harris-Foulkes estimate   =    -399.19565370 Ry
     estimated scf accuracy    <       0.00003211 Ry

     iteration # 13     ecut=    15.00 Ry     beta= 0.70
     Davidson diagonalization with overlap
     ethr =  4.84E-11,  avg # of iterations =  3.4

     total cpu time spent up to now is       17.5 secs

     total energy              =    -399.19565345 Ry
     Harris-Foulkes estimate   =    -399.19565360 Ry
     estimated scf accuracy    <       0.00003160 Ry

     iteration # 14     ecut=    15.00 Ry     beta= 0.70
     Davidson diagonalization with overlap
     ethr =  4.84E-11,  avg # of iterations =  1.6

     total cpu time spent up to now is       18.5 secs

     total energy              =    -399.19565319 Ry
     Harris-Foulkes estimate   =    -399.19565345 Ry
     estimated scf accuracy    <       0.00003103 Ry

     iteration # 15     ecut=    15.00 Ry     beta= 0.70
     Davidson diagonalization with overlap
     ethr =  4.84E-11,  avg # of iterations =  3.0

     total cpu time spent up to now is       19.6 secs

     total energy              =    -399.19565289 Ry
     Harris-Foulkes estimate   =    -399.19565319 Ry
     estimated scf accuracy    <       0.00002974 Ry

     iteration # 16     ecut=    15.00 Ry     beta= 0.70
     Davidson diagonalization with overlap
     ethr =  4.84E-11,  avg # of iterations =  3.0

     total cpu time spent up to now is       20.6 secs

     total energy              =    -399.19565173 Ry
     Harris-Foulkes estimate   =    -399.19565290 Ry
     estimated scf accuracy    <       0.00002843 Ry

     iteration # 17     ecut=    15.00 Ry     beta= 0.70
     Davidson diagonalization with overlap
     ethr =  4.84E-11,  avg # of iterations =  3.9

     total cpu time spent up to now is       22.2 secs

     total energy              =    -399.19564933 Ry
     Harris-Foulkes estimate   =    -399.19565177 Ry
     estimated scf accuracy    <       0.00002329 Ry

     iteration # 18     ecut=    15.00 Ry     beta= 0.70
     Davidson diagonalization with overlap
     ethr =  4.84E-11,  avg # of iterations =  4.4

     total cpu time spent up to now is       24.2 secs

     total energy              =    -399.19564640 Ry
     Harris-Foulkes estimate   =    -399.19564954 Ry
     estimated scf accuracy    <       0.00001318 Ry

     iteration # 19     ecut=    15.00 Ry     beta= 0.70
     Davidson diagonalization with overlap
     ethr =  4.84E-11,  avg # of iterations =  4.7

     total cpu time spent up to now is       26.3 secs

     total energy              =    -399.19564632 Ry
     Harris-Foulkes estimate   =    -399.19564711 Ry
     estimated scf accuracy    <       0.00000212 Ry

     iteration # 20     ecut=    15.00 Ry     beta= 0.70
     Davidson diagonalization with overlap
     ethr =  4.84E-11,  avg # of iterations =  4.6

     total cpu time spent up to now is       28.2 secs

     total energy              =    -399.19564664 Ry
     Harris-Foulkes estimate   =    -399.19564664 Ry
     estimated scf accuracy    <          2.6E-11 Ry

     iteration # 21     ecut=    15.00 Ry     beta= 0.70
     Davidson diagonalization with overlap
     ethr =  1.00E-13,  avg # of iterations =  2.4

     total cpu time spent up to now is       29.3 secs

     total energy              =    -399.19564664 Ry
     Harris-Foulkes estimate   =    -399.19564664 Ry
     estimated scf accuracy    <          7.2E-12 Ry

     iteration # 22     ecut=    15.00 Ry     beta= 0.70
     Davidson diagonalization with overlap
     ethr =  1.00E-13,  avg # of iterations =  1.5

     total cpu time spent up to now is       30.2 secs

     total energy              =    -399.19564664 Ry
     Harris-Foulkes estimate   =    -399.19564664 Ry
     estimated scf accuracy    <          1.1E-12 Ry

     iteration # 23     ecut=    15.00 Ry     beta= 0.70
     Davidson diagonalization with overlap
     ethr =  1.00E-13,  avg # of iterations =  1.0

     total cpu time spent up to now is       31.0 secs

     End of self-consistent calculation

          k = 0.0000 0.0000 0.0000 (   503 PWs)   bands (ev):

   -14.8416 -14.2523 -13.7587 -13.7512  -3.8830  -3.8751  -3.6827  -3.6811
    -3.2649  -3.1688  -2.4619  -2.3580  -2.3544  -1.3910   0.0949   4.7337
     6.2897   6.2992   6.3852   8.4807   8.8245  10.5332  10.5415  11.3081
    11.9359  11.9738

          k = 0.0000 0.0000 0.2488 (   495 PWs)   bands (ev):

   -14.7114 -14.1468 -13.8231 -13.8154  -4.0410  -4.0378  -3.6993  -3.1400
    -2.9671  -1.9012  -1.5430  -1.4653  -1.4620  -1.3260   0.2882   3.6002
     6.4914   6.5719   6.5809   9.0320   9.2164   9.7355   9.7522  11.0228
    11.1072  11.1085

          k = 0.0000 0.0000 0.4975 (   496 PWs)   bands (ev):

   -14.4105 -14.0724 -13.9367 -13.9286  -3.7829  -3.4537  -2.6463  -2.3041
    -2.3022  -2.2580  -1.9761  -1.9729  -1.7835  -1.3821   0.0047   1.9312
     6.7051   6.7110   6.9316   8.2258   8.8803   8.8910   9.2334  10.3961
    10.8047  10.8134

          k = 0.0000 0.0000-0.7463 (   512 PWs)   bands (ev):

   -14.1429 -14.1362 -14.0293 -14.0210  -3.9877  -3.9863  -3.1369  -3.1365
    -3.0735  -3.0704  -2.7229  -2.7210  -2.2505  -2.2463   0.5618   0.5624
     6.1515   6.1724   7.0362   7.0366   8.5994   8.6039   9.5833   9.5919
    10.4775  10.4880

          k = 0.0000 0.1667 0.0000 (   497 PWs)   bands (ev):

   -14.7882 -14.2430 -13.8033 -13.7717  -3.7689  -3.5854  -3.3990  -3.3913
    -3.1844  -2.4340  -2.1929  -2.1887  -1.9060  -1.2906   0.4323   3.8604
     6.4510   6.5319   6.9268   8.3738   8.9577  10.8702  11.0004  11.0308
    11.9690  12.0281

          k = 0.0000 0.1667 0.2488 (   499 PWs)   bands (ev):

   -14.6645 -14.1746 -13.8690 -13.8350  -3.7670  -3.6743  -3.4115  -3.2335
    -2.9253  -2.5995  -2.2036  -2.0317  -1.9292  -1.2382   0.1965   3.1597
     5.9682   6.5761   7.3972   8.8049   8.8114   9.9514  10.0443  10.9022
    10.9459  11.2243

          k = 0.0000 0.1667 0.4975 (   498 PWs)   bands (ev):

   -14.3785 -14.0846 -13.9660 -13.9557  -3.4700  -3.4315  -3.1967  -2.8951
    -2.6604  -2.2383  -2.0652  -1.8502  -1.5317  -1.3194   0.1599   1.8642
     5.7400   6.4309   7.0888   7.2451   8.9201   9.5986   9.6334  10.5284
    10.9147  11.4128

          k = 0.0000 0.1667-0.7463 (   508 PWs)   bands (ev):

   -14.1630 -14.1561 -14.0087 -14.0005  -3.6432  -3.6422  -3.3829  -3.3822
    -3.1241  -3.1234  -2.2160  -2.2139  -1.5797  -1.5788   0.7118   0.7130
     5.8024   5.8150   6.4192   6.4283   9.6680   9.6725   9.8252   9.8327
    10.5550  10.5657

          k = 0.0000 0.3333 0.0000 (   495 PWs)   bands (ev):

   -14.6432 -14.2905 -13.8830 -13.8206  -3.6020  -3.5090  -3.3781  -3.3025
    -2.7167  -2.1831  -2.0150  -1.8122  -1.5030  -1.4038   0.7387   2.5821
     7.0330   7.1993   7.5954   8.0523   9.1975  10.6379  10.8488  11.1615
    11.5895  11.8787

          k = 0.0000 0.3333 0.2488 (   496 PWs)   bands (ev):

   -14.5315 -14.2031 -13.9484 -13.8842  -3.6937  -3.3903  -3.2267  -3.1139
    -2.8852  -2.3196  -2.1225  -1.9969  -1.5047  -1.3049   0.6333   2.2473
     5.9319   6.5585   8.3806   8.5632   8.8913   9.8690  10.4806  10.8317
    11.0708  11.4806

          k = 0.0000 0.3333 0.4975 (   498 PWs)   bands (ev):

   -14.2962 -14.0751 -14.0417 -13.9993  -3.7685  -3.6486  -3.2915  -3.0934
    -2.4616  -2.3811  -1.7436  -1.7390  -1.5605  -0.8888   0.6432   1.6981
     5.0439   5.4241   6.8062   7.1855   9.4317  10.0241  10.4899  10.5240
    11.0376  12.7961

          k = 0.0000 0.3333-0.7463 (   502 PWs)   bands (ev):

   -14.1709 -14.1635 -13.9904 -13.9825  -3.6973  -3.6969  -3.0386  -3.0366
    -2.3237  -2.3228  -2.0694  -2.0686  -1.7133  -1.7101   1.1490   1.1522
     4.8109   4.8166   6.0515   6.0677  10.1452  10.1530  10.5036  10.5120
    11.7866  11.7905

          k = 0.0000-0.5000 0.0000 (   516 PWs)   bands (ev):

   -14.4568 -14.4498 -13.9078 -13.8999  -4.3136  -4.3118  -3.9361  -3.9327
    -3.6845  -3.6800  -3.0245  -3.0208  -2.4580  -2.4549   1.4239   1.4367
     7.4782   7.4954   7.4973   7.5069   9.2829   9.2934  10.6226  10.6291
    11.3797  11.3867

          k = 0.0000-0.5000 0.2488 (   494 PWs)   bands (ev):

   -14.3527 -14.3454 -13.9500 -13.9417  -3.5705  -3.5677  -2.9125  -2.9081
    -2.5671  -2.5648  -1.7526  -1.7490  -1.3213  -1.3169   1.3802   1.3893
     6.1742   6.1771   8.5475   8.5545   9.4173   9.4234  10.7443  10.7505
    11.2949  11.2993

          k = 0.0000-0.5000 0.4975 (   504 PWs)   bands (ev):

   -14.1888 -14.1807 -14.0441 -14.0352  -3.7055  -3.7042  -3.3063  -3.3030
    -2.7656  -2.7639  -2.5965  -2.5925  -1.4670  -1.4631   1.2178   1.2211
     4.8827   4.8850   6.8630   6.8807   9.7847   9.7956  10.5896  10.5940
    12.0134  12.0158

          k = 0.0000-0.5000-0.7463 (   492 PWs)   bands (ev):

   -14.1623 -14.1548 -13.9864 -13.9785  -3.4197  -3.4196  -2.4927  -2.4923
    -2.1746  -2.1741  -1.6177  -1.6175  -0.9733  -0.9717   1.4700   1.4738
     4.4280   4.4325   6.0159   6.0334  10.3748  10.3831  10.5839  10.5933
    13.2936  13.3037

          k = 0.1667 0.1667 0.0000 (   502 PWs)   bands (ev):

   -14.7479 -14.2545 -13.8536 -13.7684  -4.1502  -3.9041  -3.8411  -3.4511
    -3.1091  -2.6949  -2.5667  -2.1865  -2.0270  -1.3383   0.5073   3.4996
     6.3572   6.6527   7.2983   8.1963   8.8800  10.7604  10.9258  10.9297
    11.5382  11.5978

          k = 0.1667 0.1667 0.2488 (   498 PWs)   bands (ev):

   -14.6265 -14.1688 -13.9205 -13.8329  -3.8749  -3.8270  -3.5263  -3.3702
    -2.9931  -2.4481  -1.9102  -1.6810  -1.6567  -1.5046   0.4049   2.9085
     6.0556   6.6270   7.4701   8.5669   8.6736  10.0961  10.1090  10.8451
    11.3848  11.4481

          k = 0.1667 0.1667 0.4975 (   501 PWs)   bands (ev):

   -14.3531 -14.0750 -14.0095 -13.9587  -3.5374  -3.5113  -3.3706  -3.1433
    -2.6505  -2.6046  -2.2973  -1.7961  -1.6693  -1.4920   0.3055   1.7737
     5.2433   6.5852   6.6406   7.7860   8.3029   9.6325  10.1077  10.5429
    10.9668  11.8900

          k = 0.1667 0.1667-0.7463 (   488 PWs)   bands (ev):

   -14.1368 -14.1353 -13.9922 -13.9737  -3.1020  -2.8536  -2.5584  -2.2605
    -2.1212  -2.0360  -1.3750  -0.9896  -0.9525  -0.8890   0.5643   1.2066
     5.1826   5.7131   6.2024   7.8245   8.9575   9.9768  10.3742  10.9665
    10.9792  11.8227

          k = 0.1667 0.3333 0.0000 (   498 PWs)   bands (ev):

   -14.6278 -14.3091 -13.8898 -13.8000  -3.8697  -3.7856  -3.3901  -3.2005
    -2.8218  -2.4937  -2.0631  -1.9752  -1.8065  -1.6554   1.0033   2.7445
     6.6848   7.0505   7.6117   8.0046   8.9932  10.2528  10.8876  10.9760
    11.5593  11.9233

          k = 0.1667 0.3333 0.2488 (   498 PWs)   bands (ev):

   -14.5170 -14.2207 -13.9621 -13.8628  -3.7931  -3.5006  -3.3110  -3.1659
    -2.8176  -2.3224  -2.2760  -2.1593  -1.7664  -1.3862   0.8393   2.2865
     6.0807   6.5413   8.0076   8.4335   8.5542   9.7913  10.4266  10.8822
    11.1728  11.4983

          k = 0.1667 0.3333 0.4975 (   498 PWs)   bands (ev):

   -14.2846 -14.1059 -14.0445 -13.9778  -3.7555  -3.5269  -3.2275  -2.9245
    -2.6178  -2.3062  -2.1361  -1.8342  -1.4495  -0.9346   0.6742   1.5160
     5.0523   5.9680   6.6355   7.3158   9.0896  10.1019  10.2752  10.6766
    11.1321  12.8891

          k = 0.1667 0.3333-0.7463 (   502 PWs)   bands (ev):

   -14.2044 -14.1501 -14.0068 -13.9782  -4.2335  -3.8263  -3.1931  -3.1746
    -2.1658  -2.1374  -1.8974  -1.7242  -1.6158  -1.5098   0.5900   1.0803
     4.5382   5.3617   5.9165   6.7662  10.0700  10.1476  10.2740  10.4573
    10.8745  12.4963

          k = 0.1667-0.5000 0.0000 (   496 PWs)   bands (ev):

   -14.4613 -14.4546 -13.8596 -13.8517  -3.6731  -3.6694  -3.5734  -3.5712
    -2.2065  -2.2058  -2.1683  -2.1652  -1.4776  -1.4736   1.7853   1.7960
     7.2980   7.3143   7.5187   7.5282   9.4519   9.4622  11.1182  11.1274
    11.8765  11.8882

          k = 0.1667-0.5000 0.2488 (   500 PWs)   bands (ev):

   -14.3665 -14.3596 -13.9283 -13.9203  -3.9928  -3.9903  -3.4176  -3.4148
    -2.8321  -2.8298  -2.0050  -2.0030  -1.3186  -1.3164   1.5187   1.5251
     6.2340   6.2389   8.2012   8.2072   9.1239   9.1263  10.7346  10.7443
    11.1539  11.1602

          k = 0.1667-0.5000 0.4975 (   496 PWs)   bands (ev):

   -14.1946 -14.1870 -14.0134 -14.0048  -3.5619  -3.5609  -2.6901  -2.6864
    -2.2531  -2.2514  -2.1228  -2.1195  -1.2759  -1.2731   1.1928   1.1952
     5.3614   5.3656   6.9330   6.9512   9.7491   9.7625  10.7015  10.7094
    11.7074  11.7105

          k = 0.1667-0.5000-0.7463 (   504 PWs)   bands (ev):

   -14.1908 -14.1833 -13.9950 -13.9872  -4.1934  -4.1933  -3.3350  -3.3330
    -2.3353  -2.3344  -2.1331  -2.1319  -1.4182  -1.4154   0.8404   0.8441
     4.9025   4.9096   6.0252   6.0393  10.2051  10.2134  10.4185  10.4275
    12.2885  12.2918

          k = 0.3333 0.3333 0.0000 (   498 PWs)   bands (ev):

   -14.5677 -14.3798 -13.8548 -13.7883  -3.9053  -3.8540  -3.6424  -3.2962
    -2.6930  -2.3105  -2.2596  -1.9339  -1.7471  -1.7313   1.6697   2.8549
     6.3815   7.2084   7.2251   7.8182   8.6968   9.4954  10.8620  10.9235
    11.6233  12.3978

          k = 0.3333 0.3333 0.2488 (   492 PWs)   bands (ev):

   -14.4678 -14.2893 -13.9237 -13.8513  -3.6436  -3.3264  -3.1675  -2.9682
    -2.3635  -2.1863  -1.5723  -1.4444  -1.4192  -1.4123   1.3745   2.2728
     6.3265   6.8348   7.6877   8.2274   8.2627   9.3184  10.6993  11.0405
    11.4888  11.4958

          k = 0.3333 0.3333 0.4975 (   497 PWs)   bands (ev):

   -14.2531 -14.1541 -14.0139 -13.9808  -3.8817  -3.5388  -3.2190  -2.7735
    -2.2630  -2.0199  -1.8156  -1.7748  -1.5366  -1.2425   0.7720   1.2356
     5.4820   6.5429   6.5678   7.8400   8.1089   9.9970  10.3204  10.8019
    11.1314  12.0015

          k = 0.3333 0.3333-0.7463 (   492 PWs)   bands (ev):

   -14.1793 -14.1191 -14.0059 -13.9885  -3.8961  -3.3468  -2.6753  -2.4960
    -2.0056  -1.7262  -1.3563  -1.2145  -1.2094  -1.0836   0.3664   0.7871
     5.2896   5.5117   5.8901   8.3493   8.9640  10.1946  10.3368  10.5374
    11.1972  12.5964

          k = 0.3333-0.5000 0.0000 (   492 PWs)   bands (ev):

   -14.4790 -14.4729 -13.8177 -13.8102  -3.9707  -3.9685  -3.5099  -3.5068
    -2.0090  -2.0075  -1.7856  -1.7840  -1.1351  -1.1328   2.3821   2.3883
     6.7187   6.7317   7.5537   7.5596   8.9358   8.9421  10.9734  10.9838
    12.3187  12.3248

          k = 0.3333-0.5000 0.2488 (   498 PWs)   bands (ev):

   -14.3911 -14.3847 -13.8845 -13.8768  -4.0183  -4.0149  -3.7766  -3.7736
    -2.1758  -2.1735  -1.8136  -1.8127  -1.3336  -1.3329   1.8856   1.8888
     6.5289   6.5330   7.9202   7.9271   8.3418   8.3491  10.9250  10.9353
    11.2454  11.2504

          k = 0.3333-0.5000 0.4975 (   492 PWs)   bands (ev):

   -14.2047 -14.1976 -13.9890 -13.9808  -3.3422  -3.3371  -2.8275  -2.8239
    -2.0153  -2.0128  -1.5695  -1.5675  -1.0244  -1.0234   0.9983   1.0005
     6.1997   6.2094   6.9449   6.9573   9.2874   9.3000  10.9065  10.9148
    11.2640  11.2762

          k = 0.3333-0.5000-0.7463 (   496 PWs)   bands (ev):

   -14.1318 -14.1247 -14.0128 -14.0045  -3.3033  -3.3028  -2.6519  -2.6508
    -2.0113  -2.0104  -1.7473  -1.7468  -1.4865  -1.4863   0.4319   0.4350
     5.6133   5.6302   6.6790   6.6806  10.1221  10.1298  10.6296  10.6303
    11.0016  11.0108

          k =-0.5000-0.5000 0.0000 (   488 PWs)   bands (ev):

   -14.4811 -14.4753 -13.7984 -13.7910  -3.7609  -3.7596  -3.6792  -3.6770
    -1.7852  -1.7844  -1.5040  -1.5027  -0.9130  -0.9090   2.8970   2.9019
     6.3704   6.3766   7.5456   7.5493   8.7426   8.7460  11.1559  11.1657
    12.2676  12.2709

          k =-0.5000-0.5000 0.2488 (   492 PWs)   bands (ev):

   -14.3924 -14.3863 -13.8636 -13.8561  -3.8061  -3.8052  -3.4792  -3.4772
    -2.3568  -2.3550  -1.2918  -1.2907  -1.1274  -1.1233   2.1690   2.1725
     6.8693   6.8758   7.7874   7.7904   8.0110   8.0159  11.2221  11.2296
    11.2377  11.2468

          k =-0.5000-0.5000 0.4975 (   500 PWs)   bands (ev):

   -14.2117 -14.2050 -13.9894 -13.9812  -3.8807  -3.8770  -3.1508  -3.1501
    -2.2029  -2.2024  -1.8811  -1.8771  -1.4956  -1.4918   0.8728   0.8753
     6.3672   6.3827   7.7397   7.7454   8.0642   8.0663  10.5718  10.5740
    10.9977  11.0081

          k =-0.5000-0.5000-0.7463 (   496 PWs)   bands (ev):

   -14.1126 -14.1059 -14.0225 -14.0137  -2.9320  -2.9319  -2.4284  -2.4281
    -2.1946  -2.1915  -1.8839  -1.8801  -1.6564  -1.6545   0.2891   0.2912
     5.7820   5.7985   8.1547   8.1566   8.6793   8.6854  10.1817  10.1905
    11.0055  11.0160

          k = 0.1667-0.1667 0.0000 (   502 PWs)   bands (ev):

   -14.7466 -14.2564 -13.8606 -13.7609  -4.1529  -3.9022  -3.8434  -3.4491
    -3.1094  -2.6951  -2.5700  -2.1829  -2.0278  -1.3379   0.5069   3.4987
     6.3658   6.6532   7.2912   8.1958   8.8815  10.7633  10.9259  10.9274
    11.5407  11.5937

          k = 0.1667-0.1667 0.2488 (   498 PWs)   bands (ev):

   -14.6251 -14.1705 -13.9277 -13.8251  -3.8722  -3.8250  -3.5273  -3.3703
    -2.9949  -2.4493  -1.9088  -1.6808  -1.6591  -1.5063   0.4043   2.9062
     6.0580   6.6349   7.4661   8.5632   8.6753  10.0925  10.1027  10.8504
    11.3808  11.4496

          k = 0.1667-0.1667 0.4975 (   501 PWs)   bands (ev):

   -14.3518 -14.0765 -14.0174 -13.9506  -3.5389  -3.5096  -3.3701  -3.1442
    -2.6496  -2.6064  -2.2964  -1.7996  -1.6660  -1.4917   0.3053   1.7713
     5.2453   6.5743   6.6557   7.7849   8.2999   9.6308  10.0989  10.5406
    10.9744  11.8882

          k = 0.1667-0.1667-0.7463 (   488 PWs)   bands (ev):

   -14.1441 -14.1284 -13.9839 -13.9817  -3.1022  -2.8535  -2.5574  -2.2585
    -2.1202  -2.0416  -1.3767  -0.9924  -0.9510  -0.8886   0.5642   1.2030
     5.1829   5.7328   6.1841   7.8256   8.9629   9.9844  10.3660  10.9561
    10.9895  11.8173

          k = 0.3333-0.1667 0.0000 (   498 PWs)   bands (ev):

   -14.6256 -14.3121 -13.8957 -13.7932  -3.8717  -3.7871  -3.3888  -3.1984
    -2.8217  -2.4967  -2.0646  -1.9747  -1.8041  -1.6548   1.0020   2.7447
     6.6918   7.0516   7.6053   8.0039   8.9946  10.2518  10.8938  10.9726
    11.5606  11.9181

          k = 0.3333-0.1667 0.2488 (   498 PWs)   bands (ev):

   -14.5146 -14.2240 -13.9680 -13.8558  -3.7914  -3.5005  -3.3104  -3.1671
    -2.8167  -2.3231  -2.2756  -2.1572  -1.7690  -1.3879   0.8380   2.2852
     6.0843   6.5431   8.0117   8.4300   8.5520   9.7906  10.4194  10.8862
    11.1710  11.4975

          k = 0.3333-0.1667 0.4975 (   498 PWs)   bands (ev):

   -14.2819 -14.1114 -14.0489 -13.9704  -3.7551  -3.5251  -3.2276  -2.9249
    -2.6188  -2.3081  -2.1371  -1.8346  -1.4466  -0.9376   0.6743   1.5134
     5.0534   5.9742   6.6326   7.3135   9.0937  10.0956  10.2710  10.6762
    11.1360  12.8893

          k = 0.3333-0.1667-0.7463 (   502 PWs)   bands (ev):

   -14.2119 -14.1431 -13.9986 -13.9859  -4.2335  -3.8268  -3.1948  -3.1732
    -2.1652  -2.1353  -1.8970  -1.7243  -1.6179  -1.5121   0.5921   1.0755
     4.5377   5.3787   5.8987   6.7718  10.0775  10.1460  10.2655  10.4524
    10.8847  12.4878

          k = 0.3333-0.3333 0.0000 (   498 PWs)   bands (ev):

   -14.5641 -14.3843 -13.8614 -13.7808  -3.9073  -3.8559  -3.6406  -3.2933
    -2.6957  -2.3119  -2.2582  -1.9365  -1.7454  -1.7305   1.6677   2.8562
     6.3880   7.2101   7.2188   7.8170   8.6994   9.4920  10.8619  10.9231
    11.6255  12.3939

          k = 0.3333-0.3333 0.2488 (   492 PWs)   bands (ev):

   -14.4637 -14.2943 -13.9302 -13.8436  -3.6458  -3.3254  -3.1678  -2.9672
    -2.3644  -2.1833  -1.5746  -1.4436  -1.4201  -1.4131   1.3734   2.2707
     6.3276   6.8420   7.6892   8.2275   8.2579   9.3171  10.6906  11.0447
    11.4848  11.4999

          k = 0.3333-0.3333 0.4975 (   497 PWs)   bands (ev):

   -14.2481 -14.1610 -14.0200 -13.9726  -3.8789  -3.5383  -3.2191  -2.7731
    -2.2654  -2.0200  -1.8165  -1.7777  -1.5331  -1.2462   0.7729   1.2325
     5.4840   6.5284   6.5846   7.8429   8.1077   9.9885  10.3200  10.7977
    11.1378  12.0039

          k = 0.3333-0.3333-0.7463 (   492 PWs)   bands (ev):

   -14.1867 -14.1123 -13.9974 -13.9963  -3.8976  -3.3471  -2.6779  -2.4950
    -2.0036  -1.7243  -1.3596  -1.2189  -1.2094  -1.0831   0.3683   0.7826
     5.2895   5.5315   5.8731   8.3483   8.9689  10.2024  10.3288  10.5275
    11.2071  12.5963

     highest occupied level (ev):    13.3037

!    total energy              =    -399.19564664 Ry
     Harris-Foulkes estimate   =    -399.19564664 Ry
     estimated scf accuracy    <          2.2E-13 Ry

     The total energy is the sum of the following terms:

     one-electron contribution =     -51.38104819 Ry
     hartree contribution      =      63.95270228 Ry
     xc contribution           =    -109.28596472 Ry
     ewald contribution        =    -302.48133600 Ry

     convergence has been achieved in  23 iterations

     Writing output data file SnO2.save
 
     init_run     :      0.42s CPU      0.44s WALL (       1 calls)
     electrons    :     29.31s CPU     30.30s WALL (       1 calls)

     Called by init_run:
     wfcinit      :      0.38s CPU      0.40s WALL (       1 calls)
     potinit      :      0.01s CPU      0.01s WALL (       1 calls)
     hinit0       :      0.03s CPU      0.03s WALL (       1 calls)

     Called by electrons:
     c_bands      :     26.80s CPU     27.70s WALL (      23 calls)
     sum_band     :      2.45s CPU      2.52s WALL (      23 calls)
     v_of_rho     :      0.05s CPU      0.06s WALL (      24 calls)
     mix_rho      :      0.02s CPU      0.01s WALL (      23 calls)

     Called by c_bands:
     init_us_2    :      0.12s CPU      0.39s WALL (    2444 calls)
     cegterg      :     25.13s CPU     25.66s WALL (    1196 calls)

     Called by sum_band:

     Called by *egterg:
     h_psi        :     14.92s CPU     15.50s WALL (    5008 calls)
     g_psi        :      0.05s CPU      0.17s WALL (    3760 calls)
     cdiaghg      :      7.68s CPU      7.57s WALL (    4956 calls)

     Called by h_psi:
     h_psi:pot    :     14.90s CPU     15.42s WALL (    5008 calls)
     h_psi:calbec :      1.40s CPU      1.19s WALL (    5008 calls)
     vloc_psi     :     13.33s CPU     13.16s WALL (    5008 calls)
     add_vuspsi   :      0.17s CPU      1.05s WALL (    5008 calls)

     General routines
     calbec       :      1.40s CPU      1.19s WALL (    5008 calls)
     fft          :      0.04s CPU      0.03s WALL (     241 calls)
     ffts         :      0.01s CPU      0.00s WALL (      23 calls)
     fftw         :     15.58s CPU     14.31s WALL (  206224 calls)
 
     Parallel routines
     fft_scatt_xy :      0.11s CPU      1.14s WALL (  206488 calls)
     fft_scatt_yz :     14.50s CPU      2.36s WALL (  206488 calls)
 
     PWSCF        :    29.96s CPU        31.39s WALL

 
   This run was terminated on:  21: 5:32   4Apr2018            

=------------------------------------------------------------------------------=
   JOB DONE.
=------------------------------------------------------------------------------=
