
     Program PWSCF v.6.2.2 starts on  4Apr2018 at 21: 6:15 

     This program is part of the open-source Quantum ESPRESSO suite
     for quantum simulation of materials; please cite
         "P. Giannozzi et al., J. Phys.:Condens. Matter 21 395502 (2009);
         "P. Giannozzi et al., J. Phys.:Condens. Matter 29 465901 (2017);
          URL http://www.quantum-espresso.org", 
     in publications or presentations arising from this work. More details at
     http://www.quantum-espresso.org/quote

     Parallel version (MPI), running on     2 processors

     MPI processes distributed on     1 nodes
     R & G space division:  proc/nbgrp/npool/nimage =       2
     Reading input from Conv_etot-k2.in
Warning: card &IONS ignored
Warning: card / ignored
Warning: card &CELL ignored
Warning: card / ignored

     Current dimensions of program PWSCF are:
     Max number of different atomic species (ntypx) = 10
     Max number of k-points (npk) =  40000
     Max angular momentum in pseudopotentials (lmaxx) =  3

     Subspace diagonalization in iterative solution of the eigenvalue problem:
     a serial algorithm will be used

 
     Parallelization info
     --------------------
     sticks:   dense  smooth     PW     G-vecs:    dense   smooth      PW
     Min         200     200     68                 2007     2007     408
     Max         201     201     69                 2008     2008     409
     Sum         401     401    137                 4015     4015     817
 


     bravais-lattice index     =            6
     lattice parameter (alat)  =       9.1100  a.u.
     unit-cell volume          =     506.5589 (a.u.)^3
     number of atoms/cell      =            6
     number of atomic types    =            2
     number of electrons       =        52.00
     number of Kohn-Sham states=           26
     kinetic-energy cutoff     =      15.0000  Ry
     charge density cutoff     =      60.0000  Ry
     convergence threshold     =      1.0E-12
     mixing beta               =       0.7000
     number of iterations used =            8  plain     mixing
     Exchange-correlation      = PBE ( 1  4  3  4 0 0)

     celldm(1)=   9.110000  celldm(2)=   0.000000  celldm(3)=   0.670000
     celldm(4)=   0.000000  celldm(5)=   0.000000  celldm(6)=   0.000000

     crystal axes: (cart. coord. in units of alat)
               a(1) = (   1.000000   0.000000   0.000000 )  
               a(2) = (   0.000000   1.000000   0.000000 )  
               a(3) = (   0.000000   0.000000   0.670000 )  

     reciprocal axes: (cart. coord. in units 2 pi/alat)
               b(1) = (  1.000000  0.000000  0.000000 )  
               b(2) = (  0.000000  1.000000  0.000000 )  
               b(3) = (  0.000000  0.000000  1.492537 )  


     PseudoPot. # 1 for Sn read from file:
     ../Pseudo_potentials/Sn_PBE.upf
     MD5 check sum: 78e6386ae56e929f0568ae8bf606a80c
     Pseudo is Norm-conserving + core correction, Zval = 14.0
     Generated using ONCVPSP code by D. R. Hamann
     Using radial grid of 1628 points,  6 beta functions with: 
                l(1) =   0
                l(2) =   0
                l(3) =   1
                l(4) =   1
                l(5) =   2
                l(6) =   2

     PseudoPot. # 2 for O  read from file:
     ../Pseudo_potentials/O_PBE.upf
     MD5 check sum: 3e3f909f7470e8921608ab6b1f57bbae
     Pseudo is Norm-conserving + core correction, Zval =  6.0
     Generated using ONCVPSP code by D. R. Hamann
     Using radial grid of  936 points,  5 beta functions with: 
                l(1) =   0
                l(2) =   0
                l(3) =   1
                l(4) =   1
                l(5) =   2

     atomic species   valence    mass     pseudopotential
        Sn            14.00   118.71000     Sn( 1.00)
        O              6.00    15.99900     O ( 1.00)

      4 Sym. Ops. (no inversion) found



   Cartesian axes

     site n.     atom                  positions (alat units)
         1           Sn  tau(   1) = (   0.0000000   0.0000000   0.0000000  )
         2           Sn  tau(   2) = (   0.5000000   0.5000000   0.3350000  )
         3           O   tau(   3) = (   0.8060000   0.1930000   0.3350000  )
         4           O   tau(   4) = (   0.1930000   0.8060000   0.3350000  )
         5           O   tau(   5) = (   0.3060000   0.3060000   0.0000000  )
         6           O   tau(   6) = (   0.6930000   0.6930000   0.0000000  )

     number of k points=   186

     Number of k-points >= 100: set verbosity='high' to print them.

     Dense  grid:     4015 G-vectors     FFT dimensions: (  24,  24,  15)

     Estimated max dynamical RAM per process >      23.07 MB

     Estimated total dynamical RAM >      46.13 MB

     Check: negative/imaginary core charge=   -0.005277    0.000000

     Initial potential from superposition of free atoms
     Check: negative starting charge=   -0.053732

     starting charge   51.99690, renormalised to   52.00000

     negative rho (up, down):  5.373E-02 0.000E+00
     Starting wfc are   34 randomized atomic wfcs

     total cpu time spent up to now is        1.7 secs

     Self-consistent Calculation

     iteration #  1     ecut=    15.00 Ry     beta= 0.70
     Davidson diagonalization with overlap
     ethr =  1.00E-02,  avg # of iterations =  3.0

     negative rho (up, down):  1.590E-02 0.000E+00

     total cpu time spent up to now is        6.3 secs

     total energy              =    -393.37960309 Ry
     Harris-Foulkes estimate   =    -412.18270559 Ry
     estimated scf accuracy    <      24.23036763 Ry

     iteration #  2     ecut=    15.00 Ry     beta= 0.70
     Davidson diagonalization with overlap
     ethr =  1.00E-02,  avg # of iterations =  3.3

     negative rho (up, down):  4.806E-03 0.000E+00

     total cpu time spent up to now is       12.1 secs

     total energy              =    -398.11408233 Ry
     Harris-Foulkes estimate   =    -400.46451189 Ry
     estimated scf accuracy    <       3.77926242 Ry

     iteration #  3     ecut=    15.00 Ry     beta= 0.70
     Davidson diagonalization with overlap
     ethr =  7.27E-03,  avg # of iterations =  3.4

     negative rho (up, down):  9.892E-04 0.000E+00

     total cpu time spent up to now is       17.1 secs

     total energy              =    -398.95861390 Ry
     Harris-Foulkes estimate   =    -399.39674331 Ry
     estimated scf accuracy    <       0.79771046 Ry

     iteration #  4     ecut=    15.00 Ry     beta= 0.70
     Davidson diagonalization with overlap
     ethr =  1.53E-03,  avg # of iterations =  2.6

     total cpu time spent up to now is       21.3 secs

     total energy              =    -399.12539005 Ry
     Harris-Foulkes estimate   =    -399.13973094 Ry
     estimated scf accuracy    <       0.03298222 Ry

     iteration #  5     ecut=    15.00 Ry     beta= 0.70
     Davidson diagonalization with overlap
     ethr =  6.34E-05,  avg # of iterations =  2.6

     total cpu time spent up to now is       25.2 secs

     total energy              =    -399.13156295 Ry
     Harris-Foulkes estimate   =    -399.13163913 Ry
     estimated scf accuracy    <       0.00048104 Ry

     iteration #  6     ecut=    15.00 Ry     beta= 0.70
     Davidson diagonalization with overlap
     ethr =  9.25E-07,  avg # of iterations =  4.0

     total cpu time spent up to now is       30.6 secs

     total energy              =    -399.13234823 Ry
     Harris-Foulkes estimate   =    -399.13257670 Ry
     estimated scf accuracy    <       0.00049375 Ry

     iteration #  7     ecut=    15.00 Ry     beta= 0.70
     Davidson diagonalization with overlap
     ethr =  9.25E-07,  avg # of iterations =  3.6

     total cpu time spent up to now is       35.0 secs

     total energy              =    -399.13245582 Ry
     Harris-Foulkes estimate   =    -399.13252153 Ry
     estimated scf accuracy    <       0.00019654 Ry

     iteration #  8     ecut=    15.00 Ry     beta= 0.70
     Davidson diagonalization with overlap
     ethr =  3.78E-07,  avg # of iterations =  3.2

     total cpu time spent up to now is       39.2 secs

     total energy              =    -399.13248356 Ry
     Harris-Foulkes estimate   =    -399.13248568 Ry
     estimated scf accuracy    <       0.00000393 Ry

     iteration #  9     ecut=    15.00 Ry     beta= 0.70
     Davidson diagonalization with overlap
     ethr =  7.57E-09,  avg # of iterations =  3.7

     total cpu time spent up to now is       44.7 secs

     total energy              =    -399.13248639 Ry
     Harris-Foulkes estimate   =    -399.13248745 Ry
     estimated scf accuracy    <       0.00000377 Ry

     iteration # 10     ecut=    15.00 Ry     beta= 0.70
     Davidson diagonalization with overlap
     ethr =  7.24E-09,  avg # of iterations =  3.1

     total cpu time spent up to now is       48.9 secs

     total energy              =    -399.13248653 Ry
     Harris-Foulkes estimate   =    -399.13248679 Ry
     estimated scf accuracy    <       0.00000062 Ry

     iteration # 11     ecut=    15.00 Ry     beta= 0.70
     Davidson diagonalization with overlap
     ethr =  1.19E-09,  avg # of iterations =  3.3

     total cpu time spent up to now is       53.1 secs

     total energy              =    -399.13248660 Ry
     Harris-Foulkes estimate   =    -399.13248662 Ry
     estimated scf accuracy    <       0.00000003 Ry

     iteration # 12     ecut=    15.00 Ry     beta= 0.70
     Davidson diagonalization with overlap
     ethr =  6.31E-11,  avg # of iterations =  3.8

     total cpu time spent up to now is       57.3 secs

     total energy              =    -399.13248661 Ry
     Harris-Foulkes estimate   =    -399.13248661 Ry
     estimated scf accuracy    <          3.5E-10 Ry

     iteration # 13     ecut=    15.00 Ry     beta= 0.70
     Davidson diagonalization with overlap
     ethr =  6.78E-13,  avg # of iterations =  3.9

     total cpu time spent up to now is       62.4 secs

     total energy              =    -399.13248661 Ry
     Harris-Foulkes estimate   =    -399.13248661 Ry
     estimated scf accuracy    <          2.7E-11 Ry

     iteration # 14     ecut=    15.00 Ry     beta= 0.70
     Davidson diagonalization with overlap
     ethr =  1.00E-13,  avg # of iterations =  2.2

     total cpu time spent up to now is       66.4 secs

     total energy              =    -399.13248661 Ry
     Harris-Foulkes estimate   =    -399.13248661 Ry
     estimated scf accuracy    <          3.8E-12 Ry

     iteration # 15     ecut=    15.00 Ry     beta= 0.70
     Davidson diagonalization with overlap
     ethr =  1.00E-13,  avg # of iterations =  1.0

     total cpu time spent up to now is       69.2 secs

     End of self-consistent calculation

     Number of k-points >= 100: set verbosity='high' to print the bands.

     highest occupied level (ev):    13.2851

!    total energy              =    -399.13248661 Ry
     Harris-Foulkes estimate   =    -399.13248661 Ry
     estimated scf accuracy    <          1.2E-13 Ry

     The total energy is the sum of the following terms:

     one-electron contribution =     -51.27475364 Ry
     hartree contribution      =      63.89109306 Ry
     xc contribution           =    -109.26749003 Ry
     ewald contribution        =    -302.48133600 Ry

     convergence has been achieved in  15 iterations

     Writing output data file SnO2.save
 
     init_run     :      1.40s CPU      1.47s WALL (       1 calls)
     electrons    :     65.58s CPU     67.55s WALL (       1 calls)

     Called by init_run:
     wfcinit      :      1.36s CPU      1.42s WALL (       1 calls)
     potinit      :      0.01s CPU      0.01s WALL (       1 calls)
     hinit0       :      0.03s CPU      0.03s WALL (       1 calls)

     Called by electrons:
     c_bands      :     59.83s CPU     61.65s WALL (      15 calls)
     sum_band     :      5.70s CPU      5.85s WALL (      15 calls)
     v_of_rho     :      0.04s CPU      0.04s WALL (      16 calls)
     mix_rho      :      0.01s CPU      0.01s WALL (      15 calls)

     Called by c_bands:
     init_us_2    :      0.24s CPU      0.90s WALL (    5766 calls)
     cegterg      :     56.01s CPU     56.88s WALL (    2790 calls)

     Called by sum_band:

     Called by *egterg:
     h_psi        :     34.41s CPU     35.58s WALL (   11691 calls)
     g_psi        :      0.06s CPU      0.39s WALL (    8715 calls)
     cdiaghg      :     16.46s CPU     16.29s WALL (   11505 calls)

     Called by h_psi:
     h_psi:pot    :     34.36s CPU     35.41s WALL (   11691 calls)
     h_psi:calbec :      3.27s CPU      2.61s WALL (   11691 calls)
     vloc_psi     :     30.82s CPU     30.33s WALL (   11691 calls)
     add_vuspsi   :      0.26s CPU      2.43s WALL (   11691 calls)

     General routines
     calbec       :      3.27s CPU      2.60s WALL (   11691 calls)
     fft          :      0.02s CPU      0.02s WALL (     161 calls)
     ffts         :      0.00s CPU      0.00s WALL (      15 calls)
     fftw         :     36.14s CPU     33.05s WALL (  478968 calls)
 
     Parallel routines
     fft_scatt_xy :      0.18s CPU      2.66s WALL (  479144 calls)
     fft_scatt_yz :     33.94s CPU      5.30s WALL (  479144 calls)
 
     PWSCF        :  1m 7.28s CPU     1m10.12s WALL

 
   This run was terminated on:  21: 7:25   4Apr2018            

=------------------------------------------------------------------------------=
   JOB DONE.
=------------------------------------------------------------------------------=
