
     Program PWSCF v.6.2.2 starts on  4Apr2018 at 21:22:10 

     This program is part of the open-source Quantum ESPRESSO suite
     for quantum simulation of materials; please cite
         "P. Giannozzi et al., J. Phys.:Condens. Matter 21 395502 (2009);
         "P. Giannozzi et al., J. Phys.:Condens. Matter 29 465901 (2017);
          URL http://www.quantum-espresso.org", 
     in publications or presentations arising from this work. More details at
     http://www.quantum-espresso.org/quote

     Parallel version (MPI), running on     2 processors

     MPI processes distributed on     1 nodes
     R & G space division:  proc/nbgrp/npool/nimage =       2
     Reading input from Conv_etot-k2.in
Warning: card &IONS ignored
Warning: card / ignored
Warning: card &CELL ignored
Warning: card / ignored

     Current dimensions of program PWSCF are:
     Max number of different atomic species (ntypx) = 10
     Max number of k-points (npk) =  40000
     Max angular momentum in pseudopotentials (lmaxx) =  3

     Subspace diagonalization in iterative solution of the eigenvalue problem:
     a serial algorithm will be used

 
     Parallelization info
     --------------------
     sticks:   dense  smooth     PW     G-vecs:    dense   smooth      PW
     Min         200     200     68                 2007     2007     408
     Max         201     201     69                 2008     2008     409
     Sum         401     401    137                 4015     4015     817
 


     bravais-lattice index     =            6
     lattice parameter (alat)  =       9.1100  a.u.
     unit-cell volume          =     506.5589 (a.u.)^3
     number of atoms/cell      =            6
     number of atomic types    =            2
     number of electrons       =        52.00
     number of Kohn-Sham states=           26
     kinetic-energy cutoff     =      15.0000  Ry
     charge density cutoff     =      60.0000  Ry
     convergence threshold     =      1.0E-12
     mixing beta               =       0.7000
     number of iterations used =            8  plain     mixing
     Exchange-correlation      = PBE ( 1  4  3  4 0 0)

     celldm(1)=   9.110000  celldm(2)=   0.000000  celldm(3)=   0.670000
     celldm(4)=   0.000000  celldm(5)=   0.000000  celldm(6)=   0.000000

     crystal axes: (cart. coord. in units of alat)
               a(1) = (   1.000000   0.000000   0.000000 )  
               a(2) = (   0.000000   1.000000   0.000000 )  
               a(3) = (   0.000000   0.000000   0.670000 )  

     reciprocal axes: (cart. coord. in units 2 pi/alat)
               b(1) = (  1.000000  0.000000  0.000000 )  
               b(2) = (  0.000000  1.000000  0.000000 )  
               b(3) = (  0.000000  0.000000  1.492537 )  


     PseudoPot. # 1 for Sn read from file:
     ../Pseudo_potentials/Sn_PBE.upf
     MD5 check sum: 78e6386ae56e929f0568ae8bf606a80c
     Pseudo is Norm-conserving + core correction, Zval = 14.0
     Generated using ONCVPSP code by D. R. Hamann
     Using radial grid of 1628 points,  6 beta functions with: 
                l(1) =   0
                l(2) =   0
                l(3) =   1
                l(4) =   1
                l(5) =   2
                l(6) =   2

     PseudoPot. # 2 for O  read from file:
     ../Pseudo_potentials/O_PBE.upf
     MD5 check sum: 3e3f909f7470e8921608ab6b1f57bbae
     Pseudo is Norm-conserving + core correction, Zval =  6.0
     Generated using ONCVPSP code by D. R. Hamann
     Using radial grid of  936 points,  5 beta functions with: 
                l(1) =   0
                l(2) =   0
                l(3) =   1
                l(4) =   1
                l(5) =   2

     atomic species   valence    mass     pseudopotential
        Sn            14.00   118.71000     Sn( 1.00)
        O              6.00    15.99900     O ( 1.00)

      4 Sym. Ops. (no inversion) found



   Cartesian axes

     site n.     atom                  positions (alat units)
         1           Sn  tau(   1) = (   0.0000000   0.0000000   0.0000000  )
         2           Sn  tau(   2) = (   0.5000000   0.5000000   0.3350000  )
         3           O   tau(   3) = (   0.8060000   0.1930000   0.3350000  )
         4           O   tau(   4) = (   0.1930000   0.8060000   0.3350000  )
         5           O   tau(   5) = (   0.3060000   0.3060000   0.0000000  )
         6           O   tau(   6) = (   0.6930000   0.6930000   0.0000000  )

     number of k points=   910

     Number of k-points >= 100: set verbosity='high' to print them.

     Dense  grid:     4015 G-vectors     FFT dimensions: (  24,  24,  15)

     Estimated max dynamical RAM per process >      94.30 MB

     Estimated total dynamical RAM >     188.60 MB

     Check: negative/imaginary core charge=   -0.005277    0.000000

     Initial potential from superposition of free atoms
     Check: negative starting charge=   -0.053732

     starting charge   51.99690, renormalised to   52.00000

     negative rho (up, down):  5.373E-02 0.000E+00
     Starting wfc are   34 randomized atomic wfcs

     total cpu time spent up to now is        7.3 secs

     Self-consistent Calculation

     iteration #  1     ecut=    15.00 Ry     beta= 0.70
     Davidson diagonalization with overlap
     ethr =  1.00E-02,  avg # of iterations =  3.0

     negative rho (up, down):  1.590E-02 0.000E+00

     total cpu time spent up to now is       30.3 secs

     total energy              =    -393.37400456 Ry
     Harris-Foulkes estimate   =    -412.17560583 Ry
     estimated scf accuracy    <      24.22900532 Ry

     iteration #  2     ecut=    15.00 Ry     beta= 0.70
     Davidson diagonalization with overlap
     ethr =  1.00E-02,  avg # of iterations =  3.3

     negative rho (up, down):  4.808E-03 0.000E+00

     total cpu time spent up to now is       58.1 secs

     total energy              =    -398.11121063 Ry
     Harris-Foulkes estimate   =    -400.45058611 Ry
     estimated scf accuracy    <       3.76244198 Ry

     iteration #  3     ecut=    15.00 Ry     beta= 0.70
     Davidson diagonalization with overlap
     ethr =  7.24E-03,  avg # of iterations =  3.4

     negative rho (up, down):  9.881E-04 0.000E+00

     total cpu time spent up to now is       83.1 secs

     total energy              =    -398.94679335 Ry
     Harris-Foulkes estimate   =    -399.38215910 Ry
     estimated scf accuracy    <       0.79228140 Ry

     iteration #  4     ecut=    15.00 Ry     beta= 0.70
     Davidson diagonalization with overlap
     ethr =  1.52E-03,  avg # of iterations =  2.6

     total cpu time spent up to now is      104.3 secs

     total energy              =    -399.11292608 Ry
     Harris-Foulkes estimate   =    -399.12729138 Ry
     estimated scf accuracy    <       0.03295101 Ry

     iteration #  5     ecut=    15.00 Ry     beta= 0.70
     Davidson diagonalization with overlap
     ethr =  6.34E-05,  avg # of iterations =  2.6

     total cpu time spent up to now is      123.8 secs

     total energy              =    -399.11951774 Ry
     Harris-Foulkes estimate   =    -399.11959583 Ry
     estimated scf accuracy    <       0.00048445 Ry

     iteration #  6     ecut=    15.00 Ry     beta= 0.70
     Davidson diagonalization with overlap
     ethr =  9.32E-07,  avg # of iterations =  4.0

     total cpu time spent up to now is      151.3 secs

     total energy              =    -399.11985220 Ry
     Harris-Foulkes estimate   =    -399.12002012 Ry
     estimated scf accuracy    <       0.00032791 Ry

     iteration #  7     ecut=    15.00 Ry     beta= 0.70
     Davidson diagonalization with overlap
     ethr =  6.31E-07,  avg # of iterations =  3.8

     total cpu time spent up to now is      174.2 secs

     total energy              =    -399.11992512 Ry
     Harris-Foulkes estimate   =    -399.11999776 Ry
     estimated scf accuracy    <       0.00021039 Ry

     iteration #  8     ecut=    15.00 Ry     beta= 0.70
     Davidson diagonalization with overlap
     ethr =  4.05E-07,  avg # of iterations =  3.2

     total cpu time spent up to now is      195.0 secs

     total energy              =    -399.11995587 Ry
     Harris-Foulkes estimate   =    -399.11995749 Ry
     estimated scf accuracy    <       0.00000271 Ry

     iteration #  9     ecut=    15.00 Ry     beta= 0.70
     Davidson diagonalization with overlap
     ethr =  5.20E-09,  avg # of iterations =  3.3

     total cpu time spent up to now is      219.3 secs

     total energy              =    -399.11995675 Ry
     Harris-Foulkes estimate   =    -399.11995712 Ry
     estimated scf accuracy    <       0.00000060 Ry

     iteration # 10     ecut=    15.00 Ry     beta= 0.70
     Davidson diagonalization with overlap
     ethr =  1.16E-09,  avg # of iterations =  3.6

     total cpu time spent up to now is      242.8 secs

     total energy              =    -399.11995684 Ry
     Harris-Foulkes estimate   =    -399.11995693 Ry
     estimated scf accuracy    <       0.00000021 Ry

     iteration # 11     ecut=    15.00 Ry     beta= 0.70
     Davidson diagonalization with overlap
     ethr =  4.10E-10,  avg # of iterations =  3.3

     total cpu time spent up to now is      263.5 secs

     total energy              =    -399.11995687 Ry
     Harris-Foulkes estimate   =    -399.11995688 Ry
     estimated scf accuracy    <          8.9E-09 Ry

     iteration # 12     ecut=    15.00 Ry     beta= 0.70
     Davidson diagonalization with overlap
     ethr =  1.71E-11,  avg # of iterations =  3.3

     total cpu time spent up to now is      285.2 secs

     total energy              =    -399.11995687 Ry
     Harris-Foulkes estimate   =    -399.11995687 Ry
     estimated scf accuracy    <          1.2E-10 Ry

     iteration # 13     ecut=    15.00 Ry     beta= 0.70
     Davidson diagonalization with overlap
     ethr =  2.38E-13,  avg # of iterations =  3.4

     total cpu time spent up to now is      309.1 secs

     total energy              =    -399.11995687 Ry
     Harris-Foulkes estimate   =    -399.11995687 Ry
     estimated scf accuracy    <          2.8E-11 Ry

     iteration # 14     ecut=    15.00 Ry     beta= 0.70
     Davidson diagonalization with overlap
     ethr =  1.00E-13,  avg # of iterations =  2.1

     total cpu time spent up to now is      328.5 secs

     total energy              =    -399.11995687 Ry
     Harris-Foulkes estimate   =    -399.11995687 Ry
     estimated scf accuracy    <          2.9E-12 Ry

     iteration # 15     ecut=    15.00 Ry     beta= 0.70
     Davidson diagonalization with overlap
     ethr =  1.00E-13,  avg # of iterations =  1.0

     total cpu time spent up to now is      343.0 secs

     End of self-consistent calculation

     Number of k-points >= 100: set verbosity='high' to print the bands.

     highest occupied level (ev):    13.2849

!    total energy              =    -399.11995687 Ry
     Harris-Foulkes estimate   =    -399.11995687 Ry
     estimated scf accuracy    <          8.1E-14 Ry

     The total energy is the sum of the following terms:

     one-electron contribution =     -51.25250251 Ry
     hartree contribution      =      63.87836904 Ry
     xc contribution           =    -109.26448740 Ry
     ewald contribution        =    -302.48133600 Ry

     convergence has been achieved in  15 iterations

     Writing output data file SnO2.save
 
     init_run     :      6.86s CPU      7.09s WALL (       1 calls)
     electrons    :    328.21s CPU    335.71s WALL (       1 calls)

     Called by init_run:
     wfcinit      :      6.81s CPU      7.03s WALL (       1 calls)
     potinit      :      0.01s CPU      0.01s WALL (       1 calls)
     hinit0       :      0.04s CPU      0.05s WALL (       1 calls)

     Called by electrons:
     c_bands      :    300.16s CPU    306.81s WALL (      15 calls)
     sum_band     :     28.00s CPU     28.82s WALL (      15 calls)
     v_of_rho     :      0.04s CPU      0.04s WALL (      16 calls)
     mix_rho      :      0.00s CPU      0.01s WALL (      15 calls)

     Called by c_bands:
     init_us_2    :      1.14s CPU      4.48s WALL (   28210 calls)
     cegterg      :    280.90s CPU    283.06s WALL (   13650 calls)

     Called by sum_band:

     Called by *egterg:
     h_psi        :    174.34s CPU    177.62s WALL (   56392 calls)
     g_psi        :      0.49s CPU      1.95s WALL (   41832 calls)
     cdiaghg      :     81.02s CPU     79.99s WALL (   55482 calls)

     Called by h_psi:
     h_psi:pot    :    174.07s CPU    176.76s WALL (   56392 calls)
     h_psi:calbec :     13.10s CPU     13.29s WALL (   56392 calls)
     vloc_psi     :    159.02s CPU    151.11s WALL (   56392 calls)
     add_vuspsi   :      1.92s CPU     12.18s WALL (   56392 calls)

     General routines
     calbec       :     13.10s CPU     13.20s WALL (   56392 calls)
     fft          :      0.02s CPU      0.02s WALL (     161 calls)
     ffts         :      0.00s CPU      0.00s WALL (      15 calls)
     fftw         :    185.63s CPU    164.10s WALL ( 2371720 calls)
 
     Parallel routines
     fft_scatt_xy :      0.85s CPU     13.23s WALL ( 2371896 calls)
     fft_scatt_yz :    176.18s CPU     26.42s WALL ( 2371896 calls)
 
     PWSCF        :  5m35.71s CPU     5m47.07s WALL

 
   This run was terminated on:  21:27:57   4Apr2018            

=------------------------------------------------------------------------------=
   JOB DONE.
=------------------------------------------------------------------------------=
