
     Program PWSCF v.6.2.2 starts on  6Apr2018 at 22: 2: 7 

     This program is part of the open-source Quantum ESPRESSO suite
     for quantum simulation of materials; please cite
         "P. Giannozzi et al., J. Phys.:Condens. Matter 21 395502 (2009);
         "P. Giannozzi et al., J. Phys.:Condens. Matter 29 465901 (2017);
          URL http://www.quantum-espresso.org", 
     in publications or presentations arising from this work. More details at
     http://www.quantum-espresso.org/quote

     Parallel version (MPI), running on     2 processors

     MPI processes distributed on     1 nodes
     R & G space division:  proc/nbgrp/npool/nimage =       2
     Reading input from Conv_etot-k2.in
Warning: card &IONS ignored
Warning: card / ignored
Warning: card &CELL ignored
Warning: card / ignored

     Current dimensions of program PWSCF are:
     Max number of different atomic species (ntypx) = 10
     Max number of k-points (npk) =  40000
     Max angular momentum in pseudopotentials (lmaxx) =  3

     Subspace diagonalization in iterative solution of the eigenvalue problem:
     a serial algorithm will be used

 
     Parallelization info
     --------------------
     sticks:   dense  smooth     PW     G-vecs:    dense   smooth      PW
     Min         200     200     68                 2007     2007     408
     Max         201     201     69                 2008     2008     409
     Sum         401     401    137                 4015     4015     817
 


     bravais-lattice index     =            6
     lattice parameter (alat)  =       9.1100  a.u.
     unit-cell volume          =     506.5589 (a.u.)^3
     number of atoms/cell      =            6
     number of atomic types    =            2
     number of electrons       =        52.00
     number of Kohn-Sham states=           26
     kinetic-energy cutoff     =      15.0000  Ry
     charge density cutoff     =      60.0000  Ry
     convergence threshold     =      1.0E-12
     mixing beta               =       0.7000
     number of iterations used =            8  plain     mixing
     Exchange-correlation      = PBE ( 1  4  3  4 0 0)

     celldm(1)=   9.110000  celldm(2)=   0.000000  celldm(3)=   0.670000
     celldm(4)=   0.000000  celldm(5)=   0.000000  celldm(6)=   0.000000

     crystal axes: (cart. coord. in units of alat)
               a(1) = (   1.000000   0.000000   0.000000 )  
               a(2) = (   0.000000   1.000000   0.000000 )  
               a(3) = (   0.000000   0.000000   0.670000 )  

     reciprocal axes: (cart. coord. in units 2 pi/alat)
               b(1) = (  1.000000  0.000000  0.000000 )  
               b(2) = (  0.000000  1.000000  0.000000 )  
               b(3) = (  0.000000  0.000000  1.492537 )  


     PseudoPot. # 1 for Sn read from file:
     ../Pseudo_potentials/Sn_PBE.upf
     MD5 check sum: 78e6386ae56e929f0568ae8bf606a80c
     Pseudo is Norm-conserving + core correction, Zval = 14.0
     Generated using ONCVPSP code by D. R. Hamann
     Using radial grid of 1628 points,  6 beta functions with: 
                l(1) =   0
                l(2) =   0
                l(3) =   1
                l(4) =   1
                l(5) =   2
                l(6) =   2

     PseudoPot. # 2 for O  read from file:
     ../Pseudo_potentials/O_PBE.upf
     MD5 check sum: 3e3f909f7470e8921608ab6b1f57bbae
     Pseudo is Norm-conserving + core correction, Zval =  6.0
     Generated using ONCVPSP code by D. R. Hamann
     Using radial grid of  936 points,  5 beta functions with: 
                l(1) =   0
                l(2) =   0
                l(3) =   1
                l(4) =   1
                l(5) =   2

     atomic species   valence    mass     pseudopotential
        Sn            14.00   118.71000     Sn( 1.00)
        O              6.00    15.99900     O ( 1.00)

      4 Sym. Ops. (no inversion) found



   Cartesian axes

     site n.     atom                  positions (alat units)
         1           Sn  tau(   1) = (   0.0000000   0.0000000   0.0000000  )
         2           Sn  tau(   2) = (   0.5000000   0.5000000   0.3350000  )
         3           O   tau(   3) = (   0.8060000   0.1930000   0.3350000  )
         4           O   tau(   4) = (   0.1930000   0.8060000   0.3350000  )
         5           O   tau(   5) = (   0.3060000   0.3060000   0.0000000  )
         6           O   tau(   6) = (   0.6930000   0.6930000   0.0000000  )

     number of k points=   657

     Number of k-points >= 100: set verbosity='high' to print them.

     Dense  grid:     4015 G-vectors     FFT dimensions: (  24,  24,  15)

     Estimated max dynamical RAM per process >      69.41 MB

     Estimated total dynamical RAM >     138.82 MB

     Check: negative/imaginary core charge=   -0.005277    0.000000

     Initial potential from superposition of free atoms
     Check: negative starting charge=   -0.053732

     starting charge   51.99690, renormalised to   52.00000

     negative rho (up, down):  5.373E-02 0.000E+00
     Starting wfc are   34 randomized atomic wfcs

     total cpu time spent up to now is       15.1 secs

     Self-consistent Calculation

     iteration #  1     ecut=    15.00 Ry     beta= 0.70
     Davidson diagonalization with overlap
     ethr =  1.00E-02,  avg # of iterations =  3.0

     negative rho (up, down):  1.590E-02 0.000E+00

     total cpu time spent up to now is       62.8 secs

     total energy              =    -393.38869153 Ry
     Harris-Foulkes estimate   =    -412.18086833 Ry
     estimated scf accuracy    <      24.21732229 Ry

     iteration #  2     ecut=    15.00 Ry     beta= 0.70
     Davidson diagonalization with overlap
     ethr =  1.00E-02,  avg # of iterations =  3.3

     negative rho (up, down):  4.807E-03 0.000E+00

     total cpu time spent up to now is      118.6 secs

     total energy              =    -398.12197254 Ry
     Harris-Foulkes estimate   =    -400.46015065 Ry
     estimated scf accuracy    <       3.76009200 Ry

     iteration #  3     ecut=    15.00 Ry     beta= 0.70
     Davidson diagonalization with overlap
     ethr =  7.23E-03,  avg # of iterations =  3.4

     negative rho (up, down):  9.885E-04 0.000E+00

     total cpu time spent up to now is      162.3 secs

     total energy              =    -398.95860724 Ry
     Harris-Foulkes estimate   =    -399.39442115 Ry
     estimated scf accuracy    <       0.79314130 Ry

     iteration #  4     ecut=    15.00 Ry     beta= 0.70
     Davidson diagonalization with overlap
     ethr =  1.53E-03,  avg # of iterations =  2.6

     total cpu time spent up to now is      183.7 secs

     total energy              =    -399.12464743 Ry
     Harris-Foulkes estimate   =    -399.13884621 Ry
     estimated scf accuracy    <       0.03271643 Ry

     iteration #  5     ecut=    15.00 Ry     beta= 0.70
     Davidson diagonalization with overlap
     ethr =  6.29E-05,  avg # of iterations =  2.6

     total cpu time spent up to now is      204.0 secs

     total energy              =    -399.13121747 Ry
     Harris-Foulkes estimate   =    -399.13128972 Ry
     estimated scf accuracy    <       0.00047693 Ry

     iteration #  6     ecut=    15.00 Ry     beta= 0.70
     Davidson diagonalization with overlap
     ethr =  9.17E-07,  avg # of iterations =  4.0

     total cpu time spent up to now is      231.6 secs

     total energy              =    -399.13145027 Ry
     Harris-Foulkes estimate   =    -399.13163107 Ry
     estimated scf accuracy    <       0.00036231 Ry

     iteration #  7     ecut=    15.00 Ry     beta= 0.70
     Davidson diagonalization with overlap
     ethr =  6.97E-07,  avg # of iterations =  3.8

     total cpu time spent up to now is      256.0 secs

     total energy              =    -399.13153873 Ry
     Harris-Foulkes estimate   =    -399.13160947 Ry
     estimated scf accuracy    <       0.00020928 Ry

     iteration #  8     ecut=    15.00 Ry     beta= 0.70
     Davidson diagonalization with overlap
     ethr =  4.02E-07,  avg # of iterations =  3.2

     total cpu time spent up to now is      276.8 secs

     total energy              =    -399.13157165 Ry
     Harris-Foulkes estimate   =    -399.13157308 Ry
     estimated scf accuracy    <       0.00000303 Ry

     iteration #  9     ecut=    15.00 Ry     beta= 0.70
     Davidson diagonalization with overlap
     ethr =  5.82E-09,  avg # of iterations =  3.4

     total cpu time spent up to now is      301.8 secs

     total energy              =    -399.13157442 Ry
     Harris-Foulkes estimate   =    -399.13157503 Ry
     estimated scf accuracy    <       0.00000158 Ry

     iteration # 10     ecut=    15.00 Ry     beta= 0.70
     Davidson diagonalization with overlap
     ethr =  3.04E-09,  avg # of iterations =  3.3

     total cpu time spent up to now is      322.8 secs

     total energy              =    -399.13157456 Ry
     Harris-Foulkes estimate   =    -399.13157468 Ry
     estimated scf accuracy    <       0.00000022 Ry

     iteration # 11     ecut=    15.00 Ry     beta= 0.70
     Davidson diagonalization with overlap
     ethr =  4.17E-10,  avg # of iterations =  3.3

     total cpu time spent up to now is      345.6 secs

     total energy              =    -399.13157460 Ry
     Harris-Foulkes estimate   =    -399.13157463 Ry
     estimated scf accuracy    <       0.00000006 Ry

     iteration # 12     ecut=    15.00 Ry     beta= 0.70
     Davidson diagonalization with overlap
     ethr =  1.07E-10,  avg # of iterations =  3.2

     total cpu time spent up to now is      367.1 secs

     total energy              =    -399.13157461 Ry
     Harris-Foulkes estimate   =    -399.13157461 Ry
     estimated scf accuracy    <          7.0E-10 Ry

     iteration # 13     ecut=    15.00 Ry     beta= 0.70
     Davidson diagonalization with overlap
     ethr =  1.35E-12,  avg # of iterations =  3.6

     total cpu time spent up to now is      392.5 secs

     total energy              =    -399.13157461 Ry
     Harris-Foulkes estimate   =    -399.13157461 Ry
     estimated scf accuracy    <          1.0E-10 Ry

     iteration # 14     ecut=    15.00 Ry     beta= 0.70
     Davidson diagonalization with overlap
     ethr =  1.94E-13,  avg # of iterations =  3.0

     total cpu time spent up to now is      415.6 secs

     total energy              =    -399.13157461 Ry
     Harris-Foulkes estimate   =    -399.13157461 Ry
     estimated scf accuracy    <          4.2E-12 Ry

     iteration # 15     ecut=    15.00 Ry     beta= 0.70
     Davidson diagonalization with overlap
     ethr =  1.00E-13,  avg # of iterations =  1.2

     total cpu time spent up to now is      430.7 secs

     End of self-consistent calculation

     Number of k-points >= 100: set verbosity='high' to print the bands.

     highest occupied level (ev):    13.2873

!    total energy              =    -399.13157461 Ry
     Harris-Foulkes estimate   =    -399.13157461 Ry
     estimated scf accuracy    <          8.9E-14 Ry

     The total energy is the sum of the following terms:

     one-electron contribution =     -51.26928085 Ry
     hartree contribution      =      63.88626182 Ry
     xc contribution           =    -109.26721958 Ry
     ewald contribution        =    -302.48133600 Ry

     convergence has been achieved in  15 iterations

     Writing output data file SnO2.save
 
     init_run     :      6.89s CPU     14.59s WALL (       1 calls)
     electrons    :    326.93s CPU    415.57s WALL (       1 calls)

     Called by init_run:
     wfcinit      :      6.81s CPU     14.44s WALL (       1 calls)
     potinit      :      0.01s CPU      0.03s WALL (       1 calls)
     hinit0       :      0.05s CPU      0.10s WALL (       1 calls)

     Called by electrons:
     c_bands      :    298.60s CPU    382.02s WALL (      15 calls)
     sum_band     :     28.27s CPU     33.44s WALL (      15 calls)
     v_of_rho     :      0.05s CPU      0.07s WALL (      16 calls)
     mix_rho      :      0.01s CPU      0.02s WALL (      15 calls)

     Called by c_bands:
     init_us_2    :      1.59s CPU      4.91s WALL (   20367 calls)
     cegterg      :    276.00s CPU    353.97s WALL (    9855 calls)

     Called by sum_band:

     Called by *egterg:
     h_psi        :    168.23s CPU    227.94s WALL (   41260 calls)
     g_psi        :      0.98s CPU      2.59s WALL (   30748 calls)
     cdiaghg      :     79.39s CPU     99.83s WALL (   40603 calls)

     Called by h_psi:
     h_psi:pot    :    167.95s CPU    227.12s WALL (   41260 calls)
     h_psi:calbec :     17.82s CPU     16.34s WALL (   41260 calls)
     vloc_psi     :    147.92s CPU    199.26s WALL (   41260 calls)
     add_vuspsi   :      2.18s CPU     11.34s WALL (   41260 calls)

     General routines
     calbec       :     17.81s CPU     16.26s WALL (   41260 calls)
     fft          :      0.03s CPU      0.04s WALL (     161 calls)
     ffts         :      0.00s CPU      0.00s WALL (      15 calls)
     fftw         :    172.91s CPU    217.32s WALL ( 1706808 calls)
 
     Parallel routines
     fft_scatt_xy :      1.65s CPU     12.58s WALL ( 1706984 calls)
     fft_scatt_yz :    153.83s CPU     85.93s WALL ( 1706984 calls)
 
     PWSCF        :  5m34.67s CPU     7m15.45s WALL

 
   This run was terminated on:  22: 9:22   6Apr2018            

=------------------------------------------------------------------------------=
   JOB DONE.
=------------------------------------------------------------------------------=
