
     Program PWSCF v.6.2.2 starts on  4Apr2018 at 21: 4:51 

     This program is part of the open-source Quantum ESPRESSO suite
     for quantum simulation of materials; please cite
         "P. Giannozzi et al., J. Phys.:Condens. Matter 21 395502 (2009);
         "P. Giannozzi et al., J. Phys.:Condens. Matter 29 465901 (2017);
          URL http://www.quantum-espresso.org", 
     in publications or presentations arising from this work. More details at
     http://www.quantum-espresso.org/quote

     Parallel version (MPI), running on     2 processors

     MPI processes distributed on     1 nodes
     R & G space division:  proc/nbgrp/npool/nimage =       2
     Reading input from Conv_etot-k2.in
Warning: card &IONS ignored
Warning: card / ignored
Warning: card &CELL ignored
Warning: card / ignored

     Current dimensions of program PWSCF are:
     Max number of different atomic species (ntypx) = 10
     Max number of k-points (npk) =  40000
     Max angular momentum in pseudopotentials (lmaxx) =  3

     Subspace diagonalization in iterative solution of the eigenvalue problem:
     a serial algorithm will be used

 
     Parallelization info
     --------------------
     sticks:   dense  smooth     PW     G-vecs:    dense   smooth      PW
     Min         200     200     68                 2007     2007     408
     Max         201     201     69                 2008     2008     409
     Sum         401     401    137                 4015     4015     817
 


     bravais-lattice index     =            6
     lattice parameter (alat)  =       9.1100  a.u.
     unit-cell volume          =     506.5589 (a.u.)^3
     number of atoms/cell      =            6
     number of atomic types    =            2
     number of electrons       =        52.00
     number of Kohn-Sham states=           26
     kinetic-energy cutoff     =      15.0000  Ry
     charge density cutoff     =      60.0000  Ry
     convergence threshold     =      1.0E-12
     mixing beta               =       0.7000
     number of iterations used =            8  plain     mixing
     Exchange-correlation      = PBE ( 1  4  3  4 0 0)

     celldm(1)=   9.110000  celldm(2)=   0.000000  celldm(3)=   0.670000
     celldm(4)=   0.000000  celldm(5)=   0.000000  celldm(6)=   0.000000

     crystal axes: (cart. coord. in units of alat)
               a(1) = (   1.000000   0.000000   0.000000 )  
               a(2) = (   0.000000   1.000000   0.000000 )  
               a(3) = (   0.000000   0.000000   0.670000 )  

     reciprocal axes: (cart. coord. in units 2 pi/alat)
               b(1) = (  1.000000  0.000000  0.000000 )  
               b(2) = (  0.000000  1.000000  0.000000 )  
               b(3) = (  0.000000  0.000000  1.492537 )  


     PseudoPot. # 1 for Sn read from file:
     ../Pseudo_potentials/Sn_PBE.upf
     MD5 check sum: 78e6386ae56e929f0568ae8bf606a80c
     Pseudo is Norm-conserving + core correction, Zval = 14.0
     Generated using ONCVPSP code by D. R. Hamann
     Using radial grid of 1628 points,  6 beta functions with: 
                l(1) =   0
                l(2) =   0
                l(3) =   1
                l(4) =   1
                l(5) =   2
                l(6) =   2

     PseudoPot. # 2 for O  read from file:
     ../Pseudo_potentials/O_PBE.upf
     MD5 check sum: 3e3f909f7470e8921608ab6b1f57bbae
     Pseudo is Norm-conserving + core correction, Zval =  6.0
     Generated using ONCVPSP code by D. R. Hamann
     Using radial grid of  936 points,  5 beta functions with: 
                l(1) =   0
                l(2) =   0
                l(3) =   1
                l(4) =   1
                l(5) =   2

     atomic species   valence    mass     pseudopotential
        Sn            14.00   118.71000     Sn( 1.00)
        O              6.00    15.99900     O ( 1.00)

      4 Sym. Ops. (no inversion) found



   Cartesian axes

     site n.     atom                  positions (alat units)
         1           Sn  tau(   1) = (   0.0000000   0.0000000   0.0000000  )
         2           Sn  tau(   2) = (   0.5000000   0.5000000   0.3350000  )
         3           O   tau(   3) = (   0.8060000   0.1930000   0.3350000  )
         4           O   tau(   4) = (   0.1930000   0.8060000   0.3350000  )
         5           O   tau(   5) = (   0.3060000   0.3060000   0.0000000  )
         6           O   tau(   6) = (   0.6930000   0.6930000   0.0000000  )

     number of k points=    21
                       cart. coord. in units 2pi/alat
        k(    1) = (   0.0000000   0.0000000   0.0000000), wk =   0.0312500
        k(    2) = (   0.0000000   0.0000000   0.3731343), wk =   0.0625000
        k(    3) = (   0.0000000   0.0000000  -0.7462687), wk =   0.0312500
        k(    4) = (   0.0000000   0.2500000   0.0000000), wk =   0.1250000
        k(    5) = (   0.0000000   0.2500000   0.3731343), wk =   0.2500000
        k(    6) = (   0.0000000   0.2500000  -0.7462687), wk =   0.1250000
        k(    7) = (   0.0000000  -0.5000000   0.0000000), wk =   0.0625000
        k(    8) = (   0.0000000  -0.5000000   0.3731343), wk =   0.1250000
        k(    9) = (   0.0000000  -0.5000000  -0.7462687), wk =   0.0625000
        k(   10) = (   0.2500000   0.2500000   0.0000000), wk =   0.0625000
        k(   11) = (   0.2500000   0.2500000   0.3731343), wk =   0.1250000
        k(   12) = (   0.2500000   0.2500000  -0.7462687), wk =   0.0625000
        k(   13) = (   0.2500000  -0.5000000   0.0000000), wk =   0.1250000
        k(   14) = (   0.2500000  -0.5000000   0.3731343), wk =   0.2500000
        k(   15) = (   0.2500000  -0.5000000  -0.7462687), wk =   0.1250000
        k(   16) = (  -0.5000000  -0.5000000   0.0000000), wk =   0.0312500
        k(   17) = (  -0.5000000  -0.5000000   0.3731343), wk =   0.0625000
        k(   18) = (  -0.5000000  -0.5000000  -0.7462687), wk =   0.0312500
        k(   19) = (   0.2500000  -0.2500000   0.0000000), wk =   0.0625000
        k(   20) = (   0.2500000  -0.2500000   0.3731343), wk =   0.1250000
        k(   21) = (   0.2500000  -0.2500000  -0.7462687), wk =   0.0625000

     Dense  grid:     4015 G-vectors     FFT dimensions: (  24,  24,  15)

     Estimated max dynamical RAM per process >       6.83 MB

     Estimated total dynamical RAM >      13.67 MB

     Check: negative/imaginary core charge=   -0.005277    0.000000

     Initial potential from superposition of free atoms
     Check: negative starting charge=   -0.053732

     starting charge   51.99690, renormalised to   52.00000

     negative rho (up, down):  5.373E-02 0.000E+00
     Starting wfc are   34 randomized atomic wfcs

     total cpu time spent up to now is        0.4 secs

     Self-consistent Calculation

     iteration #  1     ecut=    15.00 Ry     beta= 0.70
     Davidson diagonalization with overlap
     ethr =  1.00E-02,  avg # of iterations =  2.9

     negative rho (up, down):  1.589E-02 0.000E+00

     total cpu time spent up to now is        1.0 secs

     total energy              =    -393.17855112 Ry
     Harris-Foulkes estimate   =    -412.11410700 Ry
     estimated scf accuracy    <      24.39300958 Ry

     iteration #  2     ecut=    15.00 Ry     beta= 0.70
     Davidson diagonalization with overlap
     ethr =  1.00E-02,  avg # of iterations =  3.5

     negative rho (up, down):  4.804E-03 0.000E+00

     total cpu time spent up to now is        1.6 secs

     total energy              =    -397.97940448 Ry
     Harris-Foulkes estimate   =    -400.40923659 Ry
     estimated scf accuracy    <       3.90720739 Ry

     iteration #  3     ecut=    15.00 Ry     beta= 0.70
     Davidson diagonalization with overlap
     ethr =  7.51E-03,  avg # of iterations =  3.5

     negative rho (up, down):  1.012E-03 0.000E+00

     total cpu time spent up to now is        2.2 secs

     total energy              =    -398.87558623 Ry
     Harris-Foulkes estimate   =    -399.33609941 Ry
     estimated scf accuracy    <       0.84562823 Ry

     iteration #  4     ecut=    15.00 Ry     beta= 0.70
     Davidson diagonalization with overlap
     ethr =  1.63E-03,  avg # of iterations =  2.7

     total cpu time spent up to now is        2.6 secs

     total energy              =    -399.04815885 Ry
     Harris-Foulkes estimate   =    -399.06717574 Ry
     estimated scf accuracy    <       0.03946219 Ry

     iteration #  5     ecut=    15.00 Ry     beta= 0.70
     Davidson diagonalization with overlap
     ethr =  7.59E-05,  avg # of iterations =  3.7

     total cpu time spent up to now is        3.2 secs

     total energy              =    -399.05067256 Ry
     Harris-Foulkes estimate   =    -399.06866349 Ry
     estimated scf accuracy    <       0.04678986 Ry

     iteration #  6     ecut=    15.00 Ry     beta= 0.70
     Davidson diagonalization with overlap
     ethr =  7.59E-05,  avg # of iterations =  3.4

     total cpu time spent up to now is        3.6 secs

     total energy              =    -399.05838385 Ry
     Harris-Foulkes estimate   =    -399.05916887 Ry
     estimated scf accuracy    <       0.00256507 Ry

     iteration #  7     ecut=    15.00 Ry     beta= 0.70
     Davidson diagonalization with overlap
     ethr =  4.93E-06,  avg # of iterations =  3.4

     total cpu time spent up to now is        4.1 secs

     total energy              =    -399.05878329 Ry
     Harris-Foulkes estimate   =    -399.05886642 Ry
     estimated scf accuracy    <       0.00026447 Ry

     iteration #  8     ecut=    15.00 Ry     beta= 0.70
     Davidson diagonalization with overlap
     ethr =  5.09E-07,  avg # of iterations =  3.4

     total cpu time spent up to now is        4.5 secs

     total energy              =    -399.05882897 Ry
     Harris-Foulkes estimate   =    -399.05885429 Ry
     estimated scf accuracy    <       0.00008194 Ry

     iteration #  9     ecut=    15.00 Ry     beta= 0.70
     Davidson diagonalization with overlap
     ethr =  1.58E-07,  avg # of iterations =  3.1

     total cpu time spent up to now is        5.0 secs

     total energy              =    -399.05883835 Ry
     Harris-Foulkes estimate   =    -399.05884439 Ry
     estimated scf accuracy    <       0.00002018 Ry

     iteration # 10     ecut=    15.00 Ry     beta= 0.70
     Davidson diagonalization with overlap
     ethr =  3.88E-08,  avg # of iterations =  3.0

     total cpu time spent up to now is        5.4 secs

     total energy              =    -399.05884098 Ry
     Harris-Foulkes estimate   =    -399.05884117 Ry
     estimated scf accuracy    <       0.00000021 Ry

     iteration # 11     ecut=    15.00 Ry     beta= 0.70
     Davidson diagonalization with overlap
     ethr =  4.02E-10,  avg # of iterations =  3.5

     total cpu time spent up to now is        6.0 secs

     total energy              =    -399.05884110 Ry
     Harris-Foulkes estimate   =    -399.05884115 Ry
     estimated scf accuracy    <       0.00000010 Ry

     iteration # 12     ecut=    15.00 Ry     beta= 0.70
     Davidson diagonalization with overlap
     ethr =  1.99E-10,  avg # of iterations =  3.0

     total cpu time spent up to now is        6.5 secs

     total energy              =    -399.05884112 Ry
     Harris-Foulkes estimate   =    -399.05884112 Ry
     estimated scf accuracy    <          2.2E-09 Ry

     iteration # 13     ecut=    15.00 Ry     beta= 0.70
     Davidson diagonalization with overlap
     ethr =  4.22E-12,  avg # of iterations =  3.2

     total cpu time spent up to now is        7.0 secs

     total energy              =    -399.05884112 Ry
     Harris-Foulkes estimate   =    -399.05884112 Ry
     estimated scf accuracy    <          2.9E-10 Ry

     iteration # 14     ecut=    15.00 Ry     beta= 0.70
     Davidson diagonalization with overlap
     ethr =  5.63E-13,  avg # of iterations =  2.4

     total cpu time spent up to now is        7.5 secs

     total energy              =    -399.05884112 Ry
     Harris-Foulkes estimate   =    -399.05884112 Ry
     estimated scf accuracy    <          2.0E-11 Ry

     iteration # 15     ecut=    15.00 Ry     beta= 0.70
     Davidson diagonalization with overlap
     ethr =  1.00E-13,  avg # of iterations =  2.6

     total cpu time spent up to now is        7.9 secs

     total energy              =    -399.05884112 Ry
     Harris-Foulkes estimate   =    -399.05884112 Ry
     estimated scf accuracy    <          5.2E-12 Ry

     iteration # 16     ecut=    15.00 Ry     beta= 0.70
     Davidson diagonalization with overlap
     ethr =  1.00E-13,  avg # of iterations =  1.3

     total cpu time spent up to now is        8.2 secs

     total energy              =    -399.05884112 Ry
     Harris-Foulkes estimate   =    -399.05884112 Ry
     estimated scf accuracy    <          1.7E-12 Ry

     iteration # 17     ecut=    15.00 Ry     beta= 0.70
     Davidson diagonalization with overlap
     ethr =  1.00E-13,  avg # of iterations =  1.0

     total cpu time spent up to now is        8.6 secs

     total energy              =    -399.05884112 Ry
     Harris-Foulkes estimate   =    -399.05884112 Ry
     estimated scf accuracy    <          1.0E-12 Ry

     iteration # 18     ecut=    15.00 Ry     beta= 0.70
     Davidson diagonalization with overlap
     ethr =  1.00E-13,  avg # of iterations =  1.0

     total cpu time spent up to now is        8.9 secs

     End of self-consistent calculation

          k = 0.0000 0.0000 0.0000 (   503 PWs)   bands (ev):

   -14.8577 -14.2693 -13.7809 -13.7675  -3.8932  -3.8704  -3.7045  -3.6927
    -3.2777  -3.1818  -2.4620  -2.3620  -2.3514  -1.4106   0.0836   4.7283
     6.2940   6.2988   6.3735   8.4644   8.8138  10.5203  10.5348  11.2925
    11.9339  11.9668

          k = 0.0000 0.0000 0.3731 (   492 PWs)   bands (ev):

   -14.5869 -14.1164 -13.9028 -13.8899  -3.3699  -3.3424  -3.3420  -2.9749
    -2.8398  -1.7917  -1.5425  -1.4171  -1.4134  -1.1562   0.0838   2.7574
     6.6042   6.8019   6.8063   8.8977   8.9204   8.9342   9.1983  10.7226
    11.1035  11.1134

          k = 0.0000 0.0000-0.7463 (   512 PWs)   bands (ev):

   -14.1637 -14.1502 -14.0503 -14.0381  -4.0058  -3.9953  -3.1392  -3.1329
    -3.0763  -3.0657  -2.7447  -2.7326  -2.2770  -2.2606   0.5555   0.5640
     6.1256   6.1660   7.0372   7.0427   8.6005   8.6054   9.5639   9.5858
    10.4581  10.4823

          k = 0.0000 0.2500 0.0000 (   493 PWs)   bands (ev):

   -14.7415 -14.2657 -13.8654 -13.8081  -3.4117  -3.3974  -3.3690  -3.2702
    -2.8905  -2.2886  -2.0704  -1.9507  -1.7593  -1.0511   0.5725   3.2193
     6.7372   6.7840   7.3100   8.3091   9.0297  10.7935  11.1180  11.1393
    12.0623  12.0824

          k = 0.0000 0.2500 0.3731 (   495 PWs)   bands (ev):

   -14.4982 -14.1186 -13.9865 -13.9361  -3.9015  -3.4122  -3.1544  -2.9518
    -2.4823  -2.2286  -1.9109  -1.6910  -1.4486  -1.1189   0.3682   2.2723
     5.6278   6.2693   7.8823   8.1271   8.7057   9.8696  10.0247  10.8012
    10.9371  11.9988

          k = 0.0000 0.2500-0.7463 (   494 PWs)   bands (ev):

   -14.1727 -14.1597 -14.0124 -13.9999  -3.2417  -3.2367  -2.8635  -2.8601
    -2.2198  -2.2158  -1.6619  -1.6525  -1.0162  -1.0110   0.9250   0.9337
     5.4134   5.4226   6.2036   6.2251  10.0863  10.1059  10.6827  10.7026
    11.2191  11.2235

          k = 0.0000-0.5000 0.0000 (   516 PWs)   bands (ev):

   -14.4771 -14.4638 -13.9282 -13.9162  -4.3358  -4.3226  -3.9552  -3.9437
    -3.6890  -3.6760  -3.0303  -3.0184  -2.4741  -2.4635   1.4196   1.4315
     7.4747   7.4766   7.4924   7.5006   9.2722   9.2875  10.6120  10.6193
    11.3505  11.3754

          k = 0.0000-0.5000 0.3731 (   496 PWs)   bands (ev):

   -14.2772 -14.2658 -14.0271 -14.0170  -3.5437  -3.5399  -2.9413  -2.9352
    -2.4517  -2.4491  -2.4105  -2.4076  -1.1486  -1.1450   1.2659   1.2732
     5.5353   5.5453   7.7827   7.8085   9.5966   9.6130  10.6363  10.6485
    11.6938  11.6989

          k = 0.0000-0.5000-0.7463 (   492 PWs)   bands (ev):

   -14.1831 -14.1705 -14.0070 -13.9943  -3.4253  -3.4243  -2.4986  -2.4973
    -2.1899  -2.1875  -1.6285  -1.6244  -0.9865  -0.9829   1.4626   1.4708
     4.4344   4.4356   5.9981   6.0281  10.3557  10.3756  10.5654  10.5872
    13.2775  13.2937

          k = 0.2500 0.2500 0.0000 (   498 PWs)   bands (ev):

   -14.6708 -14.3147 -13.9158 -13.7873  -3.8724  -3.5619  -3.3411  -3.2456
    -2.6054  -2.5958  -2.3030  -1.9318  -1.8484  -1.7586   0.9441   3.0507
     6.4146   6.9508   7.5845   8.0329   8.8702  10.3691  10.8524  10.8675
    11.6483  11.8136

          k = 0.2500 0.2500 0.3731 (   496 PWs)   bands (ev):

   -14.4380 -14.1543 -14.0332 -13.9163  -3.9845  -3.4830  -3.1745  -3.0734
    -2.4352  -2.0559  -2.0400  -1.6339  -1.6287  -1.2382   0.7105   1.9659
     5.6781   6.9447   7.2577   7.9423   8.1492   9.9745  10.0459  10.8648
    11.1362  12.0759

          k = 0.2500 0.2500-0.7463 (   496 PWs)   bands (ev):

   -14.2209 -14.1396 -14.0070 -14.0064  -4.0197  -3.3500  -2.7903  -2.6770
    -2.1526  -2.0039  -1.7701  -1.5357  -1.3459  -1.2509   0.4376   1.1310
     4.6014   5.4999   6.0065   7.9528   8.9307  10.0252  10.2882  10.3007
    10.9936  12.5178

          k = 0.2500-0.5000 0.0000 (   492 PWs)   bands (ev):

   -14.4911 -14.4775 -13.8591 -13.8463  -3.8482  -3.8403  -3.5303  -3.5201
    -1.9418  -1.9377  -1.7393  -1.7316  -1.1956  -1.1911   2.0781   2.0850
     7.0445   7.0603   7.4988   7.5219   9.1666   9.1749  10.9910  11.0121
    12.0535  12.0780

          k = 0.2500-0.5000 0.3731 (   494 PWs)   bands (ev):

   -14.3056 -14.2926 -13.9764 -13.9643  -3.4810  -3.4776  -3.1298  -3.1269
    -2.4324  -2.4254  -1.7029  -1.6989  -0.9997  -0.9948   1.3895   1.3967
     6.0833   6.0933   7.5209   7.5419   9.1506   9.1576  10.8680  10.8892
    11.2573  11.2668

          k = 0.2500-0.5000-0.7463 (   508 PWs)   bands (ev):

   -14.2004 -14.1877 -14.0275 -14.0151  -4.3416  -4.3372  -3.3881  -3.3788
    -2.4793  -2.4718  -2.1424  -2.1356  -1.8223  -1.8171   0.5821   0.5926
     5.3153   5.3350   6.1749   6.1821  10.0492  10.0676  10.5143  10.5374
    11.1338  11.1379

          k =-0.5000-0.5000 0.0000 (   488 PWs)   bands (ev):

   -14.5021 -14.4879 -13.8206 -13.8072  -3.7807  -3.7701  -3.6792  -3.6723
    -1.7893  -1.7832  -1.5207  -1.5103  -0.9321  -0.9228   2.8921   2.8964
     6.3723   6.3762   7.5233   7.5454   8.7375   8.7397  11.1346  11.1588
    12.2363  12.2617

          k =-0.5000-0.5000 0.3731 (   488 PWs)   bands (ev):

   -14.3237 -14.3101 -13.9479 -13.9351  -3.9474  -3.9455  -2.8290  -2.8277
    -1.3917  -1.3903  -1.3703  -1.3591  -0.8739  -0.8646   1.5730   1.5823
     7.1215   7.1428   7.3416   7.3439   8.0853   8.1004  11.0208  11.0286
    11.2710  11.2958

          k =-0.5000-0.5000-0.7463 (   496 PWs)   bands (ev):

   -14.1336 -14.1201 -14.0429 -14.0312  -2.9350  -2.9279  -2.4456  -2.4367
    -2.1971  -2.1868  -1.9128  -1.8963  -1.6770  -1.6651   0.2865   0.2954
     5.7611   5.7921   8.1555   8.1659   8.6819   8.6852  10.1628  10.1797
    10.9845  11.0097

          k = 0.2500-0.2500 0.0000 (   498 PWs)   bands (ev):

   -14.6763 -14.3073 -13.9047 -13.8006  -3.8801  -3.5496  -3.3278  -3.2571
    -2.6080  -2.5956  -2.3148  -1.9215  -1.8534  -1.7598   0.9468   3.0484
     6.4184   6.9504   7.5747   8.0338   8.8748  10.3726  10.8382  10.8819
    11.6708  11.8166

          k = 0.2500-0.2500 0.3731 (   496 PWs)   bands (ev):

   -14.4437 -14.1439 -14.0249 -13.9291  -3.9876  -3.4837  -3.1721  -3.0643
    -2.4365  -2.0633  -2.0396  -1.6321  -1.6273  -1.2436   0.7134   1.9593
     5.6911   6.9345   7.2700   7.9325   8.1490   9.9648  10.0322  10.8732
    11.1344  12.0855

          k = 0.2500-0.2500-0.7463 (   496 PWs)   bands (ev):

   -14.2084 -14.1530 -14.0192 -13.9937  -4.0189  -3.3584  -2.7930  -2.6675
    -2.1559  -1.9949  -1.7734  -1.5315  -1.3564  -1.2551   0.4465   1.1190
     4.6129   5.5348   5.9727   7.9496   8.9266  10.0423  10.2636  10.2828
    11.0179  12.5015

     highest occupied level (ev):    13.2937

!    total energy              =    -399.05884112 Ry
     Harris-Foulkes estimate   =    -399.05884112 Ry
     estimated scf accuracy    <          2.2E-13 Ry

     The total energy is the sum of the following terms:

     one-electron contribution =     -51.22542238 Ry
     hartree contribution      =      63.91389181 Ry
     xc contribution           =    -109.26597455 Ry
     ewald contribution        =    -302.48133600 Ry

     convergence has been achieved in  18 iterations

     Writing output data file SnO2.save
 
     init_run     :      0.19s CPU      0.21s WALL (       1 calls)
     electrons    :      8.26s CPU      8.46s WALL (       1 calls)

     Called by init_run:
     wfcinit      :      0.16s CPU      0.16s WALL (       1 calls)
     potinit      :      0.01s CPU      0.01s WALL (       1 calls)
     hinit0       :      0.03s CPU      0.03s WALL (       1 calls)

     Called by electrons:
     c_bands      :      7.43s CPU      7.60s WALL (      18 calls)
     sum_band     :      0.77s CPU      0.80s WALL (      18 calls)
     v_of_rho     :      0.04s CPU      0.05s WALL (      19 calls)
     mix_rho      :      0.01s CPU      0.01s WALL (      18 calls)

     Called by c_bands:
     init_us_2    :      0.02s CPU      0.12s WALL (     777 calls)
     cegterg      :      6.96s CPU      6.95s WALL (     378 calls)

     Called by sum_band:

     Called by *egterg:
     h_psi        :      4.41s CPU      4.51s WALL (    1462 calls)
     g_psi        :      0.01s CPU      0.05s WALL (    1063 calls)
     cdiaghg      :      1.87s CPU      1.84s WALL (    1441 calls)

     Called by h_psi:
     h_psi:pot    :      4.41s CPU      4.49s WALL (    1462 calls)
     h_psi:calbec :      0.34s CPU      0.31s WALL (    1462 calls)
     vloc_psi     :      4.03s CPU      3.87s WALL (    1462 calls)
     add_vuspsi   :      0.03s CPU      0.30s WALL (    1462 calls)

     General routines
     calbec       :      0.34s CPU      0.31s WALL (    1462 calls)
     fft          :      0.03s CPU      0.02s WALL (     191 calls)
     ffts         :      0.00s CPU      0.00s WALL (      18 calls)
     fftw         :      4.77s CPU      4.26s WALL (   61858 calls)
 
     Parallel routines
     fft_scatt_xy :      0.01s CPU      0.34s WALL (   62067 calls)
     fft_scatt_yz :      4.70s CPU      0.69s WALL (   62067 calls)
 
     PWSCF        :     8.67s CPU         9.18s WALL

 
   This run was terminated on:  21: 5: 0   4Apr2018            

=------------------------------------------------------------------------------=
   JOB DONE.
=------------------------------------------------------------------------------=
