
     Program PWSCF v.6.2.2 starts on  6Apr2018 at 21:50:20 

     This program is part of the open-source Quantum ESPRESSO suite
     for quantum simulation of materials; please cite
         "P. Giannozzi et al., J. Phys.:Condens. Matter 21 395502 (2009);
         "P. Giannozzi et al., J. Phys.:Condens. Matter 29 465901 (2017);
          URL http://www.quantum-espresso.org", 
     in publications or presentations arising from this work. More details at
     http://www.quantum-espresso.org/quote

     Parallel version (MPI), running on     2 processors

     MPI processes distributed on     1 nodes
     R & G space division:  proc/nbgrp/npool/nimage =       2
     Reading input from Conv_etot-k2.in
Warning: card &IONS ignored
Warning: card / ignored
Warning: card &CELL ignored
Warning: card / ignored

     Current dimensions of program PWSCF are:
     Max number of different atomic species (ntypx) = 10
     Max number of k-points (npk) =  40000
     Max angular momentum in pseudopotentials (lmaxx) =  3

     Subspace diagonalization in iterative solution of the eigenvalue problem:
     a serial algorithm will be used

 
     Parallelization info
     --------------------
     sticks:   dense  smooth     PW     G-vecs:    dense   smooth      PW
     Min         200     200     68                 2007     2007     408
     Max         201     201     69                 2008     2008     409
     Sum         401     401    137                 4015     4015     817
 


     bravais-lattice index     =            6
     lattice parameter (alat)  =       9.1100  a.u.
     unit-cell volume          =     506.5589 (a.u.)^3
     number of atoms/cell      =            6
     number of atomic types    =            2
     number of electrons       =        52.00
     number of Kohn-Sham states=           26
     kinetic-energy cutoff     =      15.0000  Ry
     charge density cutoff     =      60.0000  Ry
     convergence threshold     =      1.0E-12
     mixing beta               =       0.7000
     number of iterations used =            8  plain     mixing
     Exchange-correlation      = PBE ( 1  4  3  4 0 0)

     celldm(1)=   9.110000  celldm(2)=   0.000000  celldm(3)=   0.670000
     celldm(4)=   0.000000  celldm(5)=   0.000000  celldm(6)=   0.000000

     crystal axes: (cart. coord. in units of alat)
               a(1) = (   1.000000   0.000000   0.000000 )  
               a(2) = (   0.000000   1.000000   0.000000 )  
               a(3) = (   0.000000   0.000000   0.670000 )  

     reciprocal axes: (cart. coord. in units 2 pi/alat)
               b(1) = (  1.000000  0.000000  0.000000 )  
               b(2) = (  0.000000  1.000000  0.000000 )  
               b(3) = (  0.000000  0.000000  1.492537 )  


     PseudoPot. # 1 for Sn read from file:
     ../Pseudo_potentials/Sn_PBE.upf
     MD5 check sum: 78e6386ae56e929f0568ae8bf606a80c
     Pseudo is Norm-conserving + core correction, Zval = 14.0
     Generated using ONCVPSP code by D. R. Hamann
     Using radial grid of 1628 points,  6 beta functions with: 
                l(1) =   0
                l(2) =   0
                l(3) =   1
                l(4) =   1
                l(5) =   2
                l(6) =   2

     PseudoPot. # 2 for O  read from file:
     ../Pseudo_potentials/O_PBE.upf
     MD5 check sum: 3e3f909f7470e8921608ab6b1f57bbae
     Pseudo is Norm-conserving + core correction, Zval =  6.0
     Generated using ONCVPSP code by D. R. Hamann
     Using radial grid of  936 points,  5 beta functions with: 
                l(1) =   0
                l(2) =   0
                l(3) =   1
                l(4) =   1
                l(5) =   2

     atomic species   valence    mass     pseudopotential
        Sn            14.00   118.71000     Sn( 1.00)
        O              6.00    15.99900     O ( 1.00)

      4 Sym. Ops. (no inversion) found



   Cartesian axes

     site n.     atom                  positions (alat units)
         1           Sn  tau(   1) = (   0.0000000   0.0000000   0.0000000  )
         2           Sn  tau(   2) = (   0.5000000   0.5000000   0.3350000  )
         3           O   tau(   3) = (   0.8060000   0.1930000   0.3350000  )
         4           O   tau(   4) = (   0.1930000   0.8060000   0.3350000  )
         5           O   tau(   5) = (   0.3060000   0.3060000   0.0000000  )
         6           O   tau(   6) = (   0.6930000   0.6930000   0.0000000  )

     number of k points=   105

     Number of k-points >= 100: set verbosity='high' to print them.

     Dense  grid:     4015 G-vectors     FFT dimensions: (  24,  24,  15)

     Estimated max dynamical RAM per process >      15.10 MB

     Estimated total dynamical RAM >      30.20 MB

     Check: negative/imaginary core charge=   -0.005277    0.000000

     Initial potential from superposition of free atoms
     Check: negative starting charge=   -0.053732

     starting charge   51.99690, renormalised to   52.00000

     negative rho (up, down):  5.373E-02 0.000E+00
     Starting wfc are   34 randomized atomic wfcs

     total cpu time spent up to now is        3.0 secs

     Self-consistent Calculation

     iteration #  1     ecut=    15.00 Ry     beta= 0.70
     Davidson diagonalization with overlap
     ethr =  1.00E-02,  avg # of iterations =  3.0

     negative rho (up, down):  1.590E-02 0.000E+00

     total cpu time spent up to now is       10.8 secs

     total energy              =    -393.34112875 Ry
     Harris-Foulkes estimate   =    -412.16042066 Ry
     estimated scf accuracy    <      24.25207452 Ry

     iteration #  2     ecut=    15.00 Ry     beta= 0.70
     Davidson diagonalization with overlap
     ethr =  1.00E-02,  avg # of iterations =  3.3

     negative rho (up, down):  4.801E-03 0.000E+00

     total cpu time spent up to now is       20.1 secs

     total energy              =    -398.07791289 Ry
     Harris-Foulkes estimate   =    -400.42403400 Ry
     estimated scf accuracy    <       3.77298918 Ry

     iteration #  3     ecut=    15.00 Ry     beta= 0.70
     Davidson diagonalization with overlap
     ethr =  7.26E-03,  avg # of iterations =  3.4

     negative rho (up, down):  9.860E-04 0.000E+00

     total cpu time spent up to now is       28.4 secs

     total energy              =    -398.92051214 Ry
     Harris-Foulkes estimate   =    -399.35839567 Ry
     estimated scf accuracy    <       0.79675809 Ry

     iteration #  4     ecut=    15.00 Ry     beta= 0.70
     Davidson diagonalization with overlap
     ethr =  1.53E-03,  avg # of iterations =  2.5

     total cpu time spent up to now is       35.2 secs

     total energy              =    -399.08762332 Ry
     Harris-Foulkes estimate   =    -399.10148549 Ry
     estimated scf accuracy    <       0.03230429 Ry

     iteration #  5     ecut=    15.00 Ry     beta= 0.70
     Davidson diagonalization with overlap
     ethr =  6.21E-05,  avg # of iterations =  2.5

     total cpu time spent up to now is       41.6 secs

     total energy              =    -399.09261227 Ry
     Harris-Foulkes estimate   =    -399.09271501 Ry
     estimated scf accuracy    <       0.00053303 Ry

     iteration #  6     ecut=    15.00 Ry     beta= 0.70
     Davidson diagonalization with overlap
     ethr =  1.03E-06,  avg # of iterations =  3.9

     total cpu time spent up to now is       50.6 secs

     total energy              =    -399.09337449 Ry
     Harris-Foulkes estimate   =    -399.09368081 Ry
     estimated scf accuracy    <       0.00069081 Ry

     iteration #  7     ecut=    15.00 Ry     beta= 0.70
     Davidson diagonalization with overlap
     ethr =  1.03E-06,  avg # of iterations =  3.7

     total cpu time spent up to now is       58.3 secs

     total energy              =    -399.09353264 Ry
     Harris-Foulkes estimate   =    -399.09361323 Ry
     estimated scf accuracy    <       0.00024384 Ry

     iteration #  8     ecut=    15.00 Ry     beta= 0.70
     Davidson diagonalization with overlap
     ethr =  4.69E-07,  avg # of iterations =  3.1

     total cpu time spent up to now is       64.8 secs

     total energy              =    -399.09356046 Ry
     Harris-Foulkes estimate   =    -399.09356889 Ry
     estimated scf accuracy    <       0.00001474 Ry

     iteration #  9     ecut=    15.00 Ry     beta= 0.70
     Davidson diagonalization with overlap
     ethr =  2.83E-08,  avg # of iterations =  4.0

     total cpu time spent up to now is       73.7 secs

     total energy              =    -399.09356431 Ry
     Harris-Foulkes estimate   =    -399.09356896 Ry
     estimated scf accuracy    <       0.00001289 Ry

     iteration # 10     ecut=    15.00 Ry     beta= 0.70
     Davidson diagonalization with overlap
     ethr =  2.48E-08,  avg # of iterations =  3.3

     total cpu time spent up to now is       80.5 secs

     total energy              =    -399.09356629 Ry
     Harris-Foulkes estimate   =    -399.09356644 Ry
     estimated scf accuracy    <       0.00000024 Ry

     iteration # 11     ecut=    15.00 Ry     beta= 0.70
     Davidson diagonalization with overlap
     ethr =  4.65E-10,  avg # of iterations =  3.3

     total cpu time spent up to now is       88.5 secs

     total energy              =    -399.09356638 Ry
     Harris-Foulkes estimate   =    -399.09356639 Ry
     estimated scf accuracy    <       0.00000002 Ry

     iteration # 12     ecut=    15.00 Ry     beta= 0.70
     Davidson diagonalization with overlap
     ethr =  3.10E-11,  avg # of iterations =  3.0

     total cpu time spent up to now is       93.8 secs

     total energy              =    -399.09356638 Ry
     Harris-Foulkes estimate   =    -399.09356638 Ry
     estimated scf accuracy    <          4.0E-10 Ry

     iteration # 13     ecut=    15.00 Ry     beta= 0.70
     Davidson diagonalization with overlap
     ethr =  7.60E-13,  avg # of iterations =  3.1

     total cpu time spent up to now is       97.8 secs

     total energy              =    -399.09356638 Ry
     Harris-Foulkes estimate   =    -399.09356638 Ry
     estimated scf accuracy    <          1.1E-10 Ry

     iteration # 14     ecut=    15.00 Ry     beta= 0.70
     Davidson diagonalization with overlap
     ethr =  2.20E-13,  avg # of iterations =  2.8

     total cpu time spent up to now is      101.6 secs

     total energy              =    -399.09356638 Ry
     Harris-Foulkes estimate   =    -399.09356638 Ry
     estimated scf accuracy    <          5.4E-12 Ry

     iteration # 15     ecut=    15.00 Ry     beta= 0.70
     Davidson diagonalization with overlap
     ethr =  1.00E-13,  avg # of iterations =  1.0

     total cpu time spent up to now is      103.9 secs

     End of self-consistent calculation

     Number of k-points >= 100: set verbosity='high' to print the bands.

     highest occupied level (ev):    13.2834

!    total energy              =    -399.09356638 Ry
     Harris-Foulkes estimate   =    -399.09356638 Ry
     estimated scf accuracy    <          2.5E-13 Ry

     The total energy is the sum of the following terms:

     one-electron contribution =     -51.22529067 Ry
     hartree contribution      =      63.87394746 Ry
     xc contribution           =    -109.26088716 Ry
     ewald contribution        =    -302.48133600 Ry

     convergence has been achieved in  15 iterations

     Writing output data file SnO2.save
 
     init_run     :      1.13s CPU      2.46s WALL (       1 calls)
     electrons    :     53.53s CPU    100.97s WALL (       1 calls)

     Called by init_run:
     wfcinit      :      1.07s CPU      2.35s WALL (       1 calls)
     potinit      :      0.01s CPU      0.03s WALL (       1 calls)
     hinit0       :      0.04s CPU      0.07s WALL (       1 calls)

     Called by electrons:
     c_bands      :     48.78s CPU     92.18s WALL (      15 calls)
     sum_band     :      4.69s CPU      8.61s WALL (      15 calls)
     v_of_rho     :      0.05s CPU      0.09s WALL (      16 calls)
     mix_rho      :      0.01s CPU      0.03s WALL (      15 calls)

     Called by c_bands:
     init_us_2    :      0.37s CPU      0.81s WALL (    3255 calls)
     cegterg      :     45.15s CPU     86.87s WALL (    1575 calls)

     Called by sum_band:

     Called by *egterg:
     h_psi        :     27.66s CPU     55.15s WALL (    6523 calls)
     g_psi        :      0.16s CPU      0.42s WALL (    4843 calls)
     cdiaghg      :     12.68s CPU     24.97s WALL (    6418 calls)

     Called by h_psi:
     h_psi:pot    :     27.62s CPU     55.01s WALL (    6523 calls)
     h_psi:calbec :      2.24s CPU      2.90s WALL (    6523 calls)
     vloc_psi     :     25.00s CPU     50.19s WALL (    6523 calls)
     add_vuspsi   :      0.38s CPU      1.90s WALL (    6523 calls)

     General routines
     calbec       :      2.24s CPU      2.89s WALL (    6523 calls)
     fft          :      0.03s CPU      0.08s WALL (     161 calls)
     ffts         :      0.00s CPU      0.00s WALL (      15 calls)
     fftw         :     29.15s CPU     56.17s WALL (  275208 calls)
 
     Parallel routines
     fft_scatt_xy :      0.30s CPU      2.09s WALL (  275384 calls)
     fft_scatt_yz :     25.91s CPU     33.98s WALL (  275384 calls)
 
     PWSCF        :  0m55.03s CPU     1m44.93s WALL

 
   This run was terminated on:  21:52: 5   6Apr2018            

=------------------------------------------------------------------------------=
   JOB DONE.
=------------------------------------------------------------------------------=
