
     Program PHONON v.6.2.2 starts on  5May2018 at 21:10: 1 

     This program is part of the open-source Quantum ESPRESSO suite
     for quantum simulation of materials; please cite
         "P. Giannozzi et al., J. Phys.:Condens. Matter 21 395502 (2009);
         "P. Giannozzi et al., J. Phys.:Condens. Matter 29 465901 (2017);
          URL http://www.quantum-espresso.org", 
     in publications or presentations arising from this work. More details at
     http://www.quantum-espresso.org/quote

     Parallel version (MPI), running on    16 processors

     MPI processes distributed on     2 nodes
     R & G space division:  proc/nbgrp/npool/nimage =      16

     Reading data from directory:
     ./epw.save/

     IMPORTANT: XC functional enforced from input :
     Exchange-correlation      = PBE ( 1  4  3  4 0 0)
     Any further DFT definition will be discarded
     Please, verify this is what you really want

 
     Parallelization info
     --------------------
     sticks:   dense  smooth     PW     G-vecs:    dense   smooth      PW
     Min         125     125     37                 2809     2809     447
     Max         126     126     38                 2810     2810     449
     Sum        2001    2001    593                44945    44945    7155
 

     Check: negative/imaginary core charge=   -0.000002    0.000000


     Dynamical matrices for ( 4, 4, 4)  uniform grid of q-points
     (  21 q-points):
       N         xq(1)         xq(2)         xq(3) 
       1   0.000000000   0.000000000   0.000000000
       2   0.000000000   0.000000000   0.372246638
       3   0.000000000   0.000000000  -0.744493277
       4   0.000000000   0.250000000   0.000000000
       5   0.000000000   0.250000000   0.372246638
       6   0.000000000   0.250000000  -0.744493277
       7   0.000000000  -0.500000000   0.000000000
       8   0.000000000  -0.500000000   0.372246638
       9   0.000000000  -0.500000000  -0.744493277
      10   0.250000000   0.250000000   0.000000000
      11   0.250000000   0.250000000   0.372246638
      12   0.250000000   0.250000000  -0.744493277
      13   0.250000000  -0.500000000   0.000000000
      14   0.250000000  -0.500000000   0.372246638
      15   0.250000000  -0.500000000  -0.744493277
      16   0.250000000  -0.250000000   0.000000000
      17   0.250000000  -0.250000000   0.372246638
      18   0.250000000  -0.250000000  -0.744493277
      19  -0.500000000  -0.500000000   0.000000000
      20  -0.500000000  -0.500000000   0.372246638
      21  -0.500000000  -0.500000000  -0.744493277

     Calculation of q =    0.0000000   0.0000000   0.0000000

     Phonon dispersions for SnO2                                                

     bravais-lattice index     =            6
     lattice parameter (alat)  =       9.1370  a.u.
     unit-cell volume          =     512.3005 (a.u.)^3
     number of atoms/cell      =            6
     number of atomic types    =            2
     kinetic-energy cut-off    =      75.0000  Ry
     charge density cut-off    =     300.0000  Ry
     convergence threshold     =      1.0E-14
     beta                      =       0.7000
     number of iterations used =            4
     Exchange-correlation      = PBE ( 1  4  3  4 0 0)


     celldm(1)=    9.13703  celldm(2)=    1.00000  celldm(3)=    0.67160
     celldm(4)=    0.00000  celldm(5)=    0.00000  celldm(6)=    0.00000

     crystal axes: (cart. coord. in units of alat)
               a(1) = (  1.0000  0.0000  0.0000 )  
               a(2) = (  0.0000  1.0000  0.0000 )  
               a(3) = (  0.0000  0.0000  0.6716 )  

     reciprocal axes: (cart. coord. in units 2 pi/alat)
               b(1) = (  1.0000  0.0000  0.0000 )  
               b(2) = (  0.0000  1.0000  0.0000 )  
               b(3) = (  0.0000  0.0000  1.4890 )  


     Atoms inside the unit cell: 

     Cartesian axes

     site n.  atom      mass           positions (alat units)
        1     Sn 118.7100   tau(    1) = (   -0.00033   -0.00033    0.00000  )
        2     Sn 118.7100   tau(    2) = (    0.49967    0.49967    0.33580  )
        3     O   15.9990   tau(    3) = (    0.80637    0.19296    0.33580  )
        4     O   15.9990   tau(    4) = (    0.19296    0.80637    0.33580  )
        5     O   15.9990   tau(    5) = (    0.30637    0.30637    0.00000  )
        6     O   15.9990   tau(    6) = (    0.69296    0.69296    0.00000  )

     Computing dynamical matrix for 
                    q = (   0.0000000   0.0000000   0.0000000 )
 
      5 Sym.Ops. (with q -> -q+G )


     G cutoff =  634.4127  (   2810 G-vectors)     FFT grid: ( 54, 54, 36)
     number of k points=   301

     PseudoPot. # 1 for Sn read from file:
     ../../Pseudo_potentials/Sn_PBE.upf
     MD5 check sum: 78e6386ae56e929f0568ae8bf606a80c
     Pseudo is Norm-conserving + core correction, Zval = 14.0
     Generated using ONCVPSP code by D. R. Hamann
     Using radial grid of 1628 points,  6 beta functions with: 
                l(1) =   0
                l(2) =   0
                l(3) =   1
                l(4) =   1
                l(5) =   2
                l(6) =   2

     PseudoPot. # 2 for O  read from file:
     ../../Pseudo_potentials/O_PBE.upf
     MD5 check sum: 3e3f909f7470e8921608ab6b1f57bbae
     Pseudo is Norm-conserving + core correction, Zval =  6.0
     Generated using ONCVPSP code by D. R. Hamann
     Using radial grid of  936 points,  5 beta functions with: 
                l(1) =   0
                l(2) =   0
                l(3) =   1
                l(4) =   1
                l(5) =   2

     Mode symmetry, C_2v (mm2)  point group:


     Electric field:
     Dielectric constant
     Born effective charges in two ways 


     Atomic displacements:
     There are  18 irreducible representations

     Representation     1      1 modes -A_1  D_1  S_1  To be done

     Representation     2      1 modes -A_1  D_1  S_1  To be done

     Representation     3      1 modes -A_1  D_1  S_1  To be done

     Representation     4      1 modes -A_1  D_1  S_1  To be done

     Representation     5      1 modes -A_1  D_1  S_1  To be done

     Representation     6      1 modes -A_1  D_1  S_1  To be done

     Representation     7      1 modes -A_2  D_2  S_2  To be done

     Representation     8      1 modes -B_1  D_3  S_3  To be done

     Representation     9      1 modes -B_1  D_3  S_3  To be done

     Representation    10      1 modes -B_1  D_3  S_3  To be done

     Representation    11      1 modes -B_1  D_3  S_3  To be done

     Representation    12      1 modes -B_1  D_3  S_3  To be done

     Representation    13      1 modes -B_1  D_3  S_3  To be done

     Representation    14      1 modes -B_2  D_4  S_4  To be done

     Representation    15      1 modes -B_2  D_4  S_4  To be done

     Representation    16      1 modes -B_2  D_4  S_4  To be done

     Representation    17      1 modes -B_2  D_4  S_4  To be done

     Representation    18      1 modes -B_2  D_4  S_4  To be done



     Alpha used in Ewald sum =   2.7000
     PHONON       :    30.65s CPU        59.27s WALL


     Electric Fields Calculation

      iter #   1 total cpu time :  2280.0 secs   av.it.:   7.6
      thresh= 1.000E-02 alpha_mix =  0.700 |ddv_scf|^2 =  2.780E-08

      iter #   2 total cpu time :  3205.7 secs   av.it.:  14.9
      thresh= 1.667E-05 alpha_mix =  0.700 |ddv_scf|^2 =  4.333E-08

      iter #   3 total cpu time :  3981.1 secs   av.it.:  13.0
      thresh= 2.082E-05 alpha_mix =  0.700 |ddv_scf|^2 =  2.309E-09

      iter #   4 total cpu time :  5048.5 secs   av.it.:  14.1
      thresh= 4.806E-06 alpha_mix =  0.700 |ddv_scf|^2 =  9.830E-11

      iter #   5 total cpu time :  6128.4 secs   av.it.:  14.3
      thresh= 9.915E-07 alpha_mix =  0.700 |ddv_scf|^2 =  9.803E-12

      iter #   6 total cpu time :  7211.1 secs   av.it.:  13.9
      thresh= 3.131E-07 alpha_mix =  0.700 |ddv_scf|^2 =  9.184E-14

      iter #   7 total cpu time :  8338.3 secs   av.it.:  15.3
      thresh= 3.031E-08 alpha_mix =  0.700 |ddv_scf|^2 =  2.941E-14

      iter #   8 total cpu time :  9431.4 secs   av.it.:  14.4
      thresh= 1.715E-08 alpha_mix =  0.700 |ddv_scf|^2 =  2.787E-16

     End of electric fields calculation

          Dielectric constant in cartesian axis 

          (       4.847204618       0.000000004       0.000000000 )
          (       0.000000004       4.847204618       0.000000000 )
          (       0.000000000       0.000000000       5.106774546 )

          Effective charges (d Force / dE) in cartesian axis

           atom      1   Sn 
      Ex  (        4.18470        0.56161        0.00000 )
      Ey  (        0.56161        4.18470        0.00000 )
      Ez  (        0.00000        0.00000        4.59630 )
           atom      2   Sn 
      Ex  (        4.18470       -0.56161        0.00000 )
      Ey  (       -0.56161        4.18470        0.00000 )
      Ez  (        0.00000        0.00000        4.59630 )
           atom      3   O  
      Ex  (       -2.09235        0.79922       -0.00000 )
      Ey  (        0.79921       -2.09231        0.00000 )
      Ez  (       -0.00000        0.00000       -2.29820 )
           atom      4   O  
      Ex  (       -2.09231        0.79921       -0.00000 )
      Ey  (        0.79922       -2.09235        0.00000 )
      Ez  (        0.00000       -0.00000       -2.29820 )
           atom      5   O  
      Ex  (       -2.09232       -0.79921        0.00000 )
      Ey  (       -0.79921       -2.09232        0.00000 )
      Ez  (        0.00000       -0.00000       -2.29820 )
           atom      6   O  
      Ex  (       -2.09234       -0.79922        0.00000 )
      Ey  (       -0.79922       -2.09234        0.00000 )
      Ez  (        0.00000        0.00000       -2.29820 )


     Representation #  1 mode #   1

     Self-consistent Calculation

      iter #   1 total cpu time : 10262.4 secs   av.it.:   6.9
      thresh= 1.000E-02 alpha_mix =  0.700 |ddv_scf|^2 =  1.556E-06

      iter #   2 total cpu time : 10618.5 secs   av.it.:  13.5
      thresh= 1.247E-04 alpha_mix =  0.700 |ddv_scf|^2 =  4.038E-07

      iter #   3 total cpu time : 10959.8 secs   av.it.:  13.4
      thresh= 6.355E-05 alpha_mix =  0.700 |ddv_scf|^2 =  1.361E-07

      iter #   4 total cpu time : 11281.4 secs   av.it.:  12.6
      thresh= 3.689E-05 alpha_mix =  0.700 |ddv_scf|^2 =  5.703E-09

      iter #   5 total cpu time : 11614.4 secs   av.it.:  13.2
      thresh= 7.552E-06 alpha_mix =  0.700 |ddv_scf|^2 =  4.200E-11

      iter #   6 total cpu time : 11964.4 secs   av.it.:  13.9
      thresh= 6.481E-07 alpha_mix =  0.700 |ddv_scf|^2 =  2.018E-11

      iter #   7 total cpu time : 12303.5 secs   av.it.:  13.4
      thresh= 4.493E-07 alpha_mix =  0.700 |ddv_scf|^2 =  9.013E-12

      iter #   8 total cpu time : 12643.4 secs   av.it.:  12.7
      thresh= 3.002E-07 alpha_mix =  0.700 |ddv_scf|^2 =  3.941E-13

      iter #   9 total cpu time : 12982.5 secs   av.it.:  13.3
      thresh= 6.278E-08 alpha_mix =  0.700 |ddv_scf|^2 =  1.398E-14

      iter #  10 total cpu time : 13327.4 secs   av.it.:  14.0
      thresh= 1.183E-08 alpha_mix =  0.700 |ddv_scf|^2 =  6.896E-15

     End of self-consistent calculation

     Convergence has been achieved 


     Representation #  2 mode #   2

     Self-consistent Calculation

      iter #   1 total cpu time : 13549.7 secs   av.it.:   7.3
      thresh= 1.000E-02 alpha_mix =  0.700 |ddv_scf|^2 =  5.303E-06

      iter #   2 total cpu time : 13886.8 secs   av.it.:  13.0
      thresh= 2.303E-04 alpha_mix =  0.700 |ddv_scf|^2 =  3.197E-06

      iter #   3 total cpu time : 14198.8 secs   av.it.:  12.1
      thresh= 1.788E-04 alpha_mix =  0.700 |ddv_scf|^2 =  8.198E-08

      iter #   4 total cpu time : 14539.5 secs   av.it.:  12.8
      thresh= 2.863E-05 alpha_mix =  0.700 |ddv_scf|^2 =  3.096E-08

      iter #   5 total cpu time : 14856.6 secs   av.it.:  12.3
      thresh= 1.760E-05 alpha_mix =  0.700 |ddv_scf|^2 =  4.698E-11

      iter #   6 total cpu time : 15202.3 secs   av.it.:  13.6
      thresh= 6.854E-07 alpha_mix =  0.700 |ddv_scf|^2 =  7.281E-12

      iter #   7 total cpu time : 15548.1 secs   av.it.:  13.8
      thresh= 2.698E-07 alpha_mix =  0.700 |ddv_scf|^2 =  8.642E-12

      iter #   8 total cpu time : 15867.3 secs   av.it.:  12.7
      thresh= 2.940E-07 alpha_mix =  0.700 |ddv_scf|^2 =  1.166E-13

      iter #   9 total cpu time : 16213.6 secs   av.it.:  13.8
      thresh= 3.414E-08 alpha_mix =  0.700 |ddv_scf|^2 =  1.954E-14

      iter #  10 total cpu time : 16563.0 secs   av.it.:  13.5
      thresh= 1.398E-08 alpha_mix =  0.700 |ddv_scf|^2 =  1.164E-15

     End of self-consistent calculation

     Convergence has been achieved 


     Representation #  3 mode #   3

     Self-consistent Calculation

      iter #   1 total cpu time : 16814.5 secs   av.it.:   8.5
      thresh= 1.000E-02 alpha_mix =  0.700 |ddv_scf|^2 =  1.358E-05

      iter #   2 total cpu time : 17160.3 secs   av.it.:  13.7
      thresh= 3.685E-04 alpha_mix =  0.700 |ddv_scf|^2 =  1.326E-05

      iter #   3 total cpu time : 17483.6 secs   av.it.:  12.8
      thresh= 3.642E-04 alpha_mix =  0.700 |ddv_scf|^2 =  9.837E-07

      iter #   4 total cpu time : 17799.5 secs   av.it.:  12.7
      thresh= 9.918E-05 alpha_mix =  0.700 |ddv_scf|^2 =  1.338E-09

      iter #   5 total cpu time : 18139.4 secs   av.it.:  13.4
      thresh= 3.658E-06 alpha_mix =  0.700 |ddv_scf|^2 =  3.002E-11

      iter #   6 total cpu time : 18487.8 secs   av.it.:  13.3
      thresh= 5.479E-07 alpha_mix =  0.700 |ddv_scf|^2 =  9.780E-12

      iter #   7 total cpu time : 18816.2 secs   av.it.:  13.1
      thresh= 3.127E-07 alpha_mix =  0.700 |ddv_scf|^2 =  1.788E-13

      iter #   8 total cpu time : 19164.3 secs   av.it.:  13.7
      thresh= 4.229E-08 alpha_mix =  0.700 |ddv_scf|^2 =  6.401E-15

     End of self-consistent calculation

     Convergence has been achieved 


     Representation #  4 mode #   4

     Self-consistent Calculation

      iter #   1 total cpu time : 19399.9 secs   av.it.:   7.6
      thresh= 1.000E-02 alpha_mix =  0.700 |ddv_scf|^2 =  3.462E-06

      iter #   2 total cpu time : 19743.1 secs   av.it.:  13.6
      thresh= 1.861E-04 alpha_mix =  0.700 |ddv_scf|^2 =  1.930E-06

      iter #   3 total cpu time : 20069.3 secs   av.it.:  12.9
      thresh= 1.389E-04 alpha_mix =  0.700 |ddv_scf|^2 =  9.588E-08

      iter #   4 total cpu time : 20408.6 secs   av.it.:  13.1
      thresh= 3.096E-05 alpha_mix =  0.700 |ddv_scf|^2 =  2.186E-08

      iter #   5 total cpu time : 20735.8 secs   av.it.:  12.7
      thresh= 1.479E-05 alpha_mix =  0.700 |ddv_scf|^2 =  2.292E-10

      iter #   6 total cpu time : 21084.1 secs   av.it.:  13.8
      thresh= 1.514E-06 alpha_mix =  0.700 |ddv_scf|^2 =  1.598E-10

      iter #   7 total cpu time : 21405.8 secs   av.it.:  12.9
      thresh= 1.264E-06 alpha_mix =  0.700 |ddv_scf|^2 =  4.578E-12

      iter #   8 total cpu time : 21754.3 secs   av.it.:  13.8
      thresh= 2.140E-07 alpha_mix =  0.700 |ddv_scf|^2 =  6.043E-13

      iter #   9 total cpu time : 22117.7 secs   av.it.:  14.0
      thresh= 7.774E-08 alpha_mix =  0.700 |ddv_scf|^2 =  8.094E-14

      iter #  10 total cpu time : 22458.9 secs   av.it.:  13.4
      thresh= 2.845E-08 alpha_mix =  0.700 |ddv_scf|^2 =  4.102E-15

     End of self-consistent calculation

     Convergence has been achieved 


     Representation #  5 mode #   5

     Self-consistent Calculation

      iter #   1 total cpu time : 22706.7 secs   av.it.:   8.3
      thresh= 1.000E-02 alpha_mix =  0.700 |ddv_scf|^2 =  1.159E-05

      iter #   2 total cpu time : 23049.7 secs   av.it.:  13.6
      thresh= 3.404E-04 alpha_mix =  0.700 |ddv_scf|^2 =  9.961E-06

      iter #   3 total cpu time : 23371.2 secs   av.it.:  12.7
      thresh= 3.156E-04 alpha_mix =  0.700 |ddv_scf|^2 =  1.018E-06

      iter #   4 total cpu time : 23696.1 secs   av.it.:  12.7
      thresh= 1.009E-04 alpha_mix =  0.700 |ddv_scf|^2 =  1.353E-09

      iter #   5 total cpu time : 24030.3 secs   av.it.:  13.3
      thresh= 3.678E-06 alpha_mix =  0.700 |ddv_scf|^2 =  1.081E-10

      iter #   6 total cpu time : 24364.4 secs   av.it.:  12.8
      thresh= 1.040E-06 alpha_mix =  0.700 |ddv_scf|^2 =  4.205E-11

      iter #   7 total cpu time : 24693.1 secs   av.it.:  12.6
      thresh= 6.485E-07 alpha_mix =  0.700 |ddv_scf|^2 =  7.540E-13

      iter #   8 total cpu time : 25022.6 secs   av.it.:  12.8
      thresh= 8.683E-08 alpha_mix =  0.700 |ddv_scf|^2 =  1.054E-14

      iter #   9 total cpu time : 25362.1 secs   av.it.:  13.6
      thresh= 1.027E-08 alpha_mix =  0.700 |ddv_scf|^2 =  1.063E-15

     End of self-consistent calculation

     Convergence has been achieved 


     Representation #  6 mode #   6

     Self-consistent Calculation

      iter #   1 total cpu time : 25591.3 secs   av.it.:   7.6
      thresh= 1.000E-02 alpha_mix =  0.700 |ddv_scf|^2 =  3.462E-06

      iter #   2 total cpu time : 25946.0 secs   av.it.:  13.6
      thresh= 1.861E-04 alpha_mix =  0.700 |ddv_scf|^2 =  1.930E-06

      iter #   3 total cpu time : 26280.8 secs   av.it.:  12.9
      thresh= 1.389E-04 alpha_mix =  0.700 |ddv_scf|^2 =  9.589E-08

      iter #   4 total cpu time : 26611.9 secs   av.it.:  13.1
      thresh= 3.097E-05 alpha_mix =  0.700 |ddv_scf|^2 =  2.186E-08

      iter #   5 total cpu time : 26934.9 secs   av.it.:  12.7
      thresh= 1.479E-05 alpha_mix =  0.700 |ddv_scf|^2 =  2.292E-10

      iter #   6 total cpu time : 27287.7 secs   av.it.:  13.8
      thresh= 1.514E-06 alpha_mix =  0.700 |ddv_scf|^2 =  1.597E-10

      iter #   7 total cpu time : 27614.4 secs   av.it.:  12.9
      thresh= 1.264E-06 alpha_mix =  0.700 |ddv_scf|^2 =  4.578E-12

      iter #   8 total cpu time : 27969.7 secs   av.it.:  13.8
      thresh= 2.140E-07 alpha_mix =  0.700 |ddv_scf|^2 =  6.043E-13

      iter #   9 total cpu time : 28319.9 secs   av.it.:  14.0
      thresh= 7.774E-08 alpha_mix =  0.700 |ddv_scf|^2 =  8.093E-14

      iter #  10 total cpu time : 28653.4 secs   av.it.:  13.4
      thresh= 2.845E-08 alpha_mix =  0.700 |ddv_scf|^2 =  4.101E-15

     End of self-consistent calculation

     Convergence has been achieved 


     Representation #  7 mode #   7

     Self-consistent Calculation

      iter #   1 total cpu time : 28857.7 secs   av.it.:   6.7
      thresh= 1.000E-02 alpha_mix =  0.700 |ddv_scf|^2 =  7.928E-07

      iter #   2 total cpu time : 29189.6 secs   av.it.:  13.0
      thresh= 8.904E-05 alpha_mix =  0.700 |ddv_scf|^2 =  9.773E-09

      iter #   3 total cpu time : 29528.5 secs   av.it.:  13.1
      thresh= 9.886E-06 alpha_mix =  0.700 |ddv_scf|^2 =  1.123E-10

      iter #   4 total cpu time : 29877.8 secs   av.it.:  13.0
      thresh= 1.060E-06 alpha_mix =  0.700 |ddv_scf|^2 =  9.525E-13

      iter #   5 total cpu time : 30216.3 secs   av.it.:  13.1
      thresh= 9.760E-08 alpha_mix =  0.700 |ddv_scf|^2 =  5.363E-15

     End of self-consistent calculation

     Convergence has been achieved 


     Representation #  8 mode #   8

     Self-consistent Calculation

      iter #   1 total cpu time : 30425.5 secs   av.it.:   7.0
      thresh= 1.000E-02 alpha_mix =  0.700 |ddv_scf|^2 =  2.758E-06

      iter #   2 total cpu time : 30764.0 secs   av.it.:  13.0
      thresh= 1.661E-04 alpha_mix =  0.700 |ddv_scf|^2 =  3.509E-07

      iter #   3 total cpu time : 31093.2 secs   av.it.:  13.0
      thresh= 5.924E-05 alpha_mix =  0.700 |ddv_scf|^2 =  2.707E-08

      iter #   4 total cpu time : 31417.6 secs   av.it.:  12.8
      thresh= 1.645E-05 alpha_mix =  0.700 |ddv_scf|^2 =  3.276E-09

      iter #   5 total cpu time : 31750.5 secs   av.it.:  12.8
      thresh= 5.723E-06 alpha_mix =  0.700 |ddv_scf|^2 =  5.728E-11

      iter #   6 total cpu time : 32101.2 secs   av.it.:  13.8
      thresh= 7.568E-07 alpha_mix =  0.700 |ddv_scf|^2 =  5.067E-12

      iter #   7 total cpu time : 32453.7 secs   av.it.:  13.7
      thresh= 2.251E-07 alpha_mix =  0.700 |ddv_scf|^2 =  1.128E-13

      iter #   8 total cpu time : 32790.3 secs   av.it.:  13.3
      thresh= 3.359E-08 alpha_mix =  0.700 |ddv_scf|^2 =  4.280E-15

     End of self-consistent calculation

     Convergence has been achieved 


     Representation #  9 mode #   9

     Self-consistent Calculation

      iter #   1 total cpu time : 33040.4 secs   av.it.:   8.5
      thresh= 1.000E-02 alpha_mix =  0.700 |ddv_scf|^2 =  1.358E-05

      iter #   2 total cpu time : 33385.7 secs   av.it.:  13.7
      thresh= 3.685E-04 alpha_mix =  0.700 |ddv_scf|^2 =  1.326E-05

      iter #   3 total cpu time : 33723.4 secs   av.it.:  12.8
      thresh= 3.642E-04 alpha_mix =  0.700 |ddv_scf|^2 =  9.837E-07

      iter #   4 total cpu time : 34046.3 secs   av.it.:  12.7
      thresh= 9.918E-05 alpha_mix =  0.700 |ddv_scf|^2 =  1.338E-09

      iter #   5 total cpu time : 34381.3 secs   av.it.:  13.4
      thresh= 3.658E-06 alpha_mix =  0.700 |ddv_scf|^2 =  3.002E-11

      iter #   6 total cpu time : 34711.3 secs   av.it.:  13.3
      thresh= 5.479E-07 alpha_mix =  0.700 |ddv_scf|^2 =  9.780E-12

      iter #   7 total cpu time : 35046.8 secs   av.it.:  13.1
      thresh= 3.127E-07 alpha_mix =  0.700 |ddv_scf|^2 =  1.785E-13

      iter #   8 total cpu time : 35385.3 secs   av.it.:  13.6
      thresh= 4.225E-08 alpha_mix =  0.700 |ddv_scf|^2 =  5.056E-15

     End of self-consistent calculation

     Convergence has been achieved 


     Representation # 10 mode #  10

     Self-consistent Calculation

      iter #   1 total cpu time : 35609.0 secs   av.it.:   7.0
      thresh= 1.000E-02 alpha_mix =  0.700 |ddv_scf|^2 =  2.200E-06

      iter #   2 total cpu time : 35958.1 secs   av.it.:  13.4
      thresh= 1.483E-04 alpha_mix =  0.700 |ddv_scf|^2 =  3.606E-07

      iter #   3 total cpu time : 36303.3 secs   av.it.:  13.4
      thresh= 6.005E-05 alpha_mix =  0.700 |ddv_scf|^2 =  8.967E-08

      iter #   4 total cpu time : 36628.9 secs   av.it.:  12.6
      thresh= 2.995E-05 alpha_mix =  0.700 |ddv_scf|^2 =  3.377E-09

      iter #   5 total cpu time : 36963.4 secs   av.it.:  13.2
      thresh= 5.811E-06 alpha_mix =  0.700 |ddv_scf|^2 =  8.456E-11

      iter #   6 total cpu time : 37303.7 secs   av.it.:  13.8
      thresh= 9.196E-07 alpha_mix =  0.700 |ddv_scf|^2 =  5.756E-12

      iter #   7 total cpu time : 37657.0 secs   av.it.:  13.2
      thresh= 2.399E-07 alpha_mix =  0.700 |ddv_scf|^2 =  2.276E-13

      iter #   8 total cpu time : 37999.7 secs   av.it.:  13.3
      thresh= 4.771E-08 alpha_mix =  0.700 |ddv_scf|^2 =  3.622E-15

     End of self-consistent calculation

     Convergence has been achieved 


     Representation # 11 mode #  11

     Self-consistent Calculation

      iter #   1 total cpu time : 38219.4 secs   av.it.:   7.4
      thresh= 1.000E-02 alpha_mix =  0.700 |ddv_scf|^2 =  1.710E-06

      iter #   2 total cpu time : 38571.3 secs   av.it.:  13.8
      thresh= 1.308E-04 alpha_mix =  0.700 |ddv_scf|^2 =  6.365E-07

      iter #   3 total cpu time : 38905.1 secs   av.it.:  13.3
      thresh= 7.978E-05 alpha_mix =  0.700 |ddv_scf|^2 =  1.540E-07

      iter #   4 total cpu time : 39220.1 secs   av.it.:  12.4
      thresh= 3.924E-05 alpha_mix =  0.700 |ddv_scf|^2 =  3.895E-09

      iter #   5 total cpu time : 39565.7 secs   av.it.:  13.3
      thresh= 6.241E-06 alpha_mix =  0.700 |ddv_scf|^2 =  3.540E-11

      iter #   6 total cpu time : 39911.6 secs   av.it.:  13.9
      thresh= 5.950E-07 alpha_mix =  0.700 |ddv_scf|^2 =  5.180E-12

      iter #   7 total cpu time : 40264.3 secs   av.it.:  13.7
      thresh= 2.276E-07 alpha_mix =  0.700 |ddv_scf|^2 =  3.489E-13

      iter #   8 total cpu time : 40612.9 secs   av.it.:  13.5
      thresh= 5.907E-08 alpha_mix =  0.700 |ddv_scf|^2 =  7.734E-15

     End of self-consistent calculation

     Convergence has been achieved 


     Representation # 12 mode #  12

     Self-consistent Calculation

      iter #   1 total cpu time : 40832.7 secs   av.it.:   7.0
      thresh= 1.000E-02 alpha_mix =  0.700 |ddv_scf|^2 =  2.200E-06

      iter #   2 total cpu time : 41200.0 secs   av.it.:  13.4
      thresh= 1.483E-04 alpha_mix =  0.700 |ddv_scf|^2 =  3.606E-07

      iter #   3 total cpu time : 41535.3 secs   av.it.:  13.4
      thresh= 6.005E-05 alpha_mix =  0.700 |ddv_scf|^2 =  8.966E-08

      iter #   4 total cpu time : 41862.6 secs   av.it.:  12.6
      thresh= 2.994E-05 alpha_mix =  0.700 |ddv_scf|^2 =  3.377E-09

      iter #   5 total cpu time : 42198.6 secs   av.it.:  13.2
      thresh= 5.811E-06 alpha_mix =  0.700 |ddv_scf|^2 =  8.457E-11

      iter #   6 total cpu time : 42538.4 secs   av.it.:  13.8
      thresh= 9.196E-07 alpha_mix =  0.700 |ddv_scf|^2 =  5.755E-12

      iter #   7 total cpu time : 42876.8 secs   av.it.:  13.2
      thresh= 2.399E-07 alpha_mix =  0.700 |ddv_scf|^2 =  2.276E-13

      iter #   8 total cpu time : 43229.0 secs   av.it.:  13.3
      thresh= 4.771E-08 alpha_mix =  0.700 |ddv_scf|^2 =  3.622E-15

     End of self-consistent calculation

     Convergence has been achieved 


     Representation # 13 mode #  13

     Self-consistent Calculation

      iter #   1 total cpu time : 43462.5 secs   av.it.:   8.3
      thresh= 1.000E-02 alpha_mix =  0.700 |ddv_scf|^2 =  1.159E-05

      iter #   2 total cpu time : 43803.2 secs   av.it.:  13.6
      thresh= 3.404E-04 alpha_mix =  0.700 |ddv_scf|^2 =  9.961E-06

      iter #   3 total cpu time : 44132.4 secs   av.it.:  12.7
      thresh= 3.156E-04 alpha_mix =  0.700 |ddv_scf|^2 =  1.018E-06

      iter #   4 total cpu time : 44456.2 secs   av.it.:  12.7
      thresh= 1.009E-04 alpha_mix =  0.700 |ddv_scf|^2 =  1.353E-09

      iter #   5 total cpu time : 44786.9 secs   av.it.:  13.3
      thresh= 3.678E-06 alpha_mix =  0.700 |ddv_scf|^2 =  1.081E-10

      iter #   6 total cpu time : 45116.5 secs   av.it.:  12.8
      thresh= 1.040E-06 alpha_mix =  0.700 |ddv_scf|^2 =  4.205E-11

      iter #   7 total cpu time : 45441.4 secs   av.it.:  12.6
      thresh= 6.485E-07 alpha_mix =  0.700 |ddv_scf|^2 =  7.540E-13

      iter #   8 total cpu time : 45774.4 secs   av.it.:  12.7
      thresh= 8.683E-08 alpha_mix =  0.700 |ddv_scf|^2 =  1.045E-14

      iter #   9 total cpu time : 46112.6 secs   av.it.:  13.2
      thresh= 1.022E-08 alpha_mix =  0.700 |ddv_scf|^2 =  1.659E-16

     End of self-consistent calculation

     Convergence has been achieved 


     Representation # 14 mode #  14

     Self-consistent Calculation

      iter #   1 total cpu time : 46338.4 secs   av.it.:   7.8
      thresh= 1.000E-02 alpha_mix =  0.700 |ddv_scf|^2 =  3.984E-06

      iter #   2 total cpu time : 46682.0 secs   av.it.:  13.5
      thresh= 1.996E-04 alpha_mix =  0.700 |ddv_scf|^2 =  7.492E-07

      iter #   3 total cpu time : 47019.9 secs   av.it.:  13.1
      thresh= 8.656E-05 alpha_mix =  0.700 |ddv_scf|^2 =  2.289E-09

      iter #   4 total cpu time : 47354.5 secs   av.it.:  13.2
      thresh= 4.784E-06 alpha_mix =  0.700 |ddv_scf|^2 =  1.732E-10

      iter #   5 total cpu time : 47684.6 secs   av.it.:  13.2
      thresh= 1.316E-06 alpha_mix =  0.700 |ddv_scf|^2 =  3.584E-12

      iter #   6 total cpu time : 48007.9 secs   av.it.:  13.0
      thresh= 1.893E-07 alpha_mix =  0.700 |ddv_scf|^2 =  6.810E-14

      iter #   7 total cpu time : 48346.8 secs   av.it.:  13.3
      thresh= 2.610E-08 alpha_mix =  0.700 |ddv_scf|^2 =  2.615E-15

     End of self-consistent calculation

     Convergence has been achieved 


     Representation # 15 mode #  15

     Self-consistent Calculation

      iter #   1 total cpu time : 48567.2 secs   av.it.:   7.0
      thresh= 1.000E-02 alpha_mix =  0.700 |ddv_scf|^2 =  1.150E-06

      iter #   2 total cpu time : 48924.2 secs   av.it.:  13.5
      thresh= 1.072E-04 alpha_mix =  0.700 |ddv_scf|^2 =  9.999E-08

      iter #   3 total cpu time : 49263.3 secs   av.it.:  13.5
      thresh= 3.162E-05 alpha_mix =  0.700 |ddv_scf|^2 =  2.496E-09

      iter #   4 total cpu time : 49599.6 secs   av.it.:  13.2
      thresh= 4.996E-06 alpha_mix =  0.700 |ddv_scf|^2 =  2.819E-11

      iter #   5 total cpu time : 49934.3 secs   av.it.:  13.4
      thresh= 5.309E-07 alpha_mix =  0.700 |ddv_scf|^2 =  1.583E-12

      iter #   6 total cpu time : 50259.9 secs   av.it.:  13.0
      thresh= 1.258E-07 alpha_mix =  0.700 |ddv_scf|^2 =  4.977E-14

      iter #   7 total cpu time : 50581.5 secs   av.it.:  12.8
      thresh= 2.231E-08 alpha_mix =  0.700 |ddv_scf|^2 =  4.019E-15

     End of self-consistent calculation

     Convergence has been achieved 


     Representation # 16 mode #  16

     Self-consistent Calculation

      iter #   1 total cpu time : 50799.2 secs   av.it.:   7.1
      thresh= 1.000E-02 alpha_mix =  0.700 |ddv_scf|^2 =  9.713E-07

      iter #   2 total cpu time : 51154.6 secs   av.it.:  13.8
      thresh= 9.855E-05 alpha_mix =  0.700 |ddv_scf|^2 =  5.490E-08

      iter #   3 total cpu time : 51505.8 secs   av.it.:  13.8
      thresh= 2.343E-05 alpha_mix =  0.700 |ddv_scf|^2 =  2.369E-09

      iter #   4 total cpu time : 51846.3 secs   av.it.:  13.5
      thresh= 4.867E-06 alpha_mix =  0.700 |ddv_scf|^2 =  2.797E-11

      iter #   5 total cpu time : 52188.5 secs   av.it.:  13.7
      thresh= 5.289E-07 alpha_mix =  0.700 |ddv_scf|^2 =  9.284E-13

      iter #   6 total cpu time : 52521.8 secs   av.it.:  13.4
      thresh= 9.635E-08 alpha_mix =  0.700 |ddv_scf|^2 =  5.036E-14

      iter #   7 total cpu time : 52856.1 secs   av.it.:  13.4
      thresh= 2.244E-08 alpha_mix =  0.700 |ddv_scf|^2 =  3.755E-15

     End of self-consistent calculation

     Convergence has been achieved 


     Representation # 17 mode #  17

     Self-consistent Calculation

      iter #   1 total cpu time : 53076.8 secs   av.it.:   7.8
      thresh= 1.000E-02 alpha_mix =  0.700 |ddv_scf|^2 =  3.984E-06

      iter #   2 total cpu time : 53418.4 secs   av.it.:  13.5
      thresh= 1.996E-04 alpha_mix =  0.700 |ddv_scf|^2 =  7.492E-07

      iter #   3 total cpu time : 53745.3 secs   av.it.:  13.1
      thresh= 8.656E-05 alpha_mix =  0.700 |ddv_scf|^2 =  2.289E-09

      iter #   4 total cpu time : 54077.7 secs   av.it.:  13.2
      thresh= 4.784E-06 alpha_mix =  0.700 |ddv_scf|^2 =  1.732E-10

      iter #   5 total cpu time : 54407.1 secs   av.it.:  13.2
      thresh= 1.316E-06 alpha_mix =  0.700 |ddv_scf|^2 =  3.584E-12

      iter #   6 total cpu time : 54741.5 secs   av.it.:  13.0
      thresh= 1.893E-07 alpha_mix =  0.700 |ddv_scf|^2 =  6.810E-14

      iter #   7 total cpu time : 55080.1 secs   av.it.:  13.3
      thresh= 2.610E-08 alpha_mix =  0.700 |ddv_scf|^2 =  2.615E-15

     End of self-consistent calculation

     Convergence has been achieved 


     Representation # 18 mode #  18

     Self-consistent Calculation

      iter #   1 total cpu time : 55306.4 secs   av.it.:   7.1
      thresh= 1.000E-02 alpha_mix =  0.700 |ddv_scf|^2 =  9.713E-07

      iter #   2 total cpu time : 55674.3 secs   av.it.:  13.8
      thresh= 9.855E-05 alpha_mix =  0.700 |ddv_scf|^2 =  5.490E-08

      iter #   3 total cpu time : 56052.1 secs   av.it.:  13.8
      thresh= 2.343E-05 alpha_mix =  0.700 |ddv_scf|^2 =  2.369E-09

      iter #   4 total cpu time : 56427.0 secs   av.it.:  13.5
      thresh= 4.867E-06 alpha_mix =  0.700 |ddv_scf|^2 =  2.797E-11

      iter #   5 total cpu time : 56772.5 secs   av.it.:  13.7
      thresh= 5.289E-07 alpha_mix =  0.700 |ddv_scf|^2 =  9.283E-13

      iter #   6 total cpu time : 57117.4 secs   av.it.:  13.4
      thresh= 9.635E-08 alpha_mix =  0.700 |ddv_scf|^2 =  5.036E-14

      iter #   7 total cpu time : 57457.6 secs   av.it.:  13.4
      thresh= 2.244E-08 alpha_mix =  0.700 |ddv_scf|^2 =  3.755E-15

     End of self-consistent calculation

     Convergence has been achieved 
 
     Number of q in the star =    1
     List of q in the star:
          1   0.000000000   0.000000000   0.000000000

          Dielectric constant in cartesian axis 

          (       4.847204618       0.000000004       0.000000000 )
          (       0.000000004       4.847204618       0.000000000 )
          (       0.000000000       0.000000000       5.106774546 )

          Effective charges (d Force / dE) in cartesian axis

           atom      1   Sn 
      Ex  (        4.18470        0.56161        0.00000 )
      Ey  (        0.56161        4.18470        0.00000 )
      Ez  (        0.00000        0.00000        4.59630 )
           atom      2   Sn 
      Ex  (        4.18470       -0.56161        0.00000 )
      Ey  (       -0.56161        4.18470        0.00000 )
      Ez  (        0.00000        0.00000        4.59630 )
           atom      3   O  
      Ex  (       -2.09235        0.79922       -0.00000 )
      Ey  (        0.79921       -2.09231        0.00000 )
      Ez  (       -0.00000        0.00000       -2.29820 )
           atom      4   O  
      Ex  (       -2.09231        0.79921       -0.00000 )
      Ey  (        0.79922       -2.09235        0.00000 )
      Ez  (        0.00000       -0.00000       -2.29820 )
           atom      5   O  
      Ex  (       -2.09232       -0.79921        0.00000 )
      Ey  (       -0.79921       -2.09232        0.00000 )
      Ez  (        0.00000       -0.00000       -2.29820 )
           atom      6   O  
      Ex  (       -2.09234       -0.79922        0.00000 )
      Ey  (       -0.79922       -2.09234        0.00000 )
      Ez  (        0.00000        0.00000       -2.29820 )

          Effective charges (d P / du) in cartesian axis 

           atom      1   Sn 
      Px  (        4.18452        0.56211        0.00000 )
      Py  (        0.56211        4.18452        0.00000 )
      Pz  (        0.00000        0.00000        4.59646 )
           atom      2   Sn 
      Px  (        4.18452       -0.56211        0.00000 )
      Py  (       -0.56211        4.18452        0.00000 )
      Pz  (        0.00000       -0.00000        4.59646 )
           atom      3   O  
      Px  (       -2.09230        0.79906       -0.00000 )
      Py  (        0.79908       -2.09235        0.00000 )
      Pz  (        0.00000        0.00000       -2.29789 )
           atom      4   O  
      Px  (       -2.09235        0.79908       -0.00000 )
      Py  (        0.79906       -2.09230        0.00000 )
      Pz  (        0.00000        0.00000       -2.29789 )
           atom      5   O  
      Px  (       -2.09223       -0.79935        0.00000 )
      Py  (       -0.79935       -2.09223        0.00000 )
      Pz  (        0.00000        0.00000       -2.29789 )
           atom      6   O  
      Px  (       -2.09222       -0.79933        0.00000 )
      Py  (       -0.79933       -2.09222        0.00000 )
      Pz  (        0.00000        0.00000       -2.29790 )

     Diagonalizing the dynamical matrix

     q = (    0.000000000   0.000000000   0.000000000 ) 

 **************************************************************************
     freq (    1) =      -0.651107 [THz] =     -21.718603 [cm-1]
     freq (    2) =      -0.640994 [THz] =     -21.381269 [cm-1]
     freq (    3) =       0.727121 [THz] =      24.254135 [cm-1]
     freq (    4) =       2.977211 [THz] =      99.309081 [cm-1]
     freq (    5) =       4.238348 [THz] =     141.376062 [cm-1]
     freq (    6) =       6.415061 [THz] =     213.983402 [cm-1]
     freq (    7) =       6.419956 [THz] =     214.146684 [cm-1]
     freq (    8) =       7.790331 [THz] =     259.857457 [cm-1]
     freq (    9) =       7.792420 [THz] =     259.927161 [cm-1]
     freq (   10) =      10.039432 [THz] =     334.879419 [cm-1]
     freq (   11) =      13.091045 [THz] =     436.670257 [cm-1]
     freq (   12) =      13.288909 [THz] =     443.270274 [cm-1]
     freq (   13) =      13.301431 [THz] =     443.687988 [cm-1]
     freq (   14) =      15.970886 [THz] =     532.731425 [cm-1]
     freq (   15) =      16.442256 [THz] =     548.454622 [cm-1]
     freq (   16) =      16.448738 [THz] =     548.670835 [cm-1]
     freq (   17) =      17.498469 [THz] =     583.686098 [cm-1]
     freq (   18) =      21.132728 [THz] =     704.911940 [cm-1]
 **************************************************************************

     Mode symmetry, C_2v (mm2)  point group:

     freq (  1 -  1) =        -21.7  [cm-1]   --> A_1  D_1  S_1   I+R
     freq (  2 -  2) =        -21.4  [cm-1]   --> B_1  D_3  S_3   I+R
     freq (  3 -  3) =         24.3  [cm-1]   --> B_2  D_4  S_4   I+R
     freq (  4 -  4) =         99.3  [cm-1]   --> B_1  D_3  S_3   I+R
     freq (  5 -  5) =        141.4  [cm-1]   --> B_2  D_4  S_4   I+R
     freq (  6 -  6) =        214.0  [cm-1]   --> B_1  D_3  S_3   I+R
     freq (  7 -  7) =        214.1  [cm-1]   --> A_1  D_1  S_1   I+R
     freq (  8 -  8) =        259.9  [cm-1]   --> A_1  D_1  S_1   I+R
     freq (  9 -  9) =        259.9  [cm-1]   --> B_1  D_3  S_3   I+R
     freq ( 10 - 10) =        334.9  [cm-1]   --> B_1  D_3  S_3   I+R
     freq ( 11 - 11) =        436.7  [cm-1]   --> B_2  D_4  S_4   I+R
     freq ( 12 - 12) =        443.3  [cm-1]   --> A_2  D_2  S_2   R  
     freq ( 13 - 13) =        443.7  [cm-1]   --> B_2  D_4  S_4   I+R
     freq ( 14 - 14) =        532.7  [cm-1]   --> B_2  D_4  S_4   I+R
     freq ( 15 - 15) =        548.5  [cm-1]   --> A_1  D_1  S_1   I+R
     freq ( 16 - 16) =        548.7  [cm-1]   --> B_1  D_3  S_3   I+R
     freq ( 17 - 17) =        583.7  [cm-1]   --> A_1  D_1  S_1   I+R
     freq ( 18 - 18) =        704.9  [cm-1]   --> A_1  D_1  S_1   I+R

     Calculation of q =    0.0000000   0.0000000   0.3722466
 
     Parallelization info
     --------------------
     sticks:   dense  smooth     PW     G-vecs:    dense   smooth      PW
     Min         125     125     37                 2809     2809     463
     Max         126     126     38                 2810     2810     466
     Sum        2001    2001    593                44945    44945    7427
 

     Title: 
     Phonon dispersions for SnO2                                                


     bravais-lattice index     =            6
     lattice parameter (alat)  =       9.1370  a.u.
     unit-cell volume          =     512.3005 (a.u.)^3
     number of atoms/cell      =            6
     number of atomic types    =            2
     number of electrons       =        52.00
     number of Kohn-Sham states=           26
     kinetic-energy cutoff     =      75.0000  Ry
     charge density cutoff     =     300.0000  Ry
     Exchange-correlation      = PBE ( 1  4  3  4 0 0)

     celldm(1)=   9.137033  celldm(2)=   1.000000  celldm(3)=   0.671598
     celldm(4)=   0.000000  celldm(5)=   0.000000  celldm(6)=   0.000000

     crystal axes: (cart. coord. in units of alat)
               a(1) = (   1.000000   0.000000   0.000000 )  
               a(2) = (   0.000000   1.000000   0.000000 )  
               a(3) = (   0.000000   0.000000   0.671598 )  

     reciprocal axes: (cart. coord. in units 2 pi/alat)
               b(1) = (  1.000000  0.000000  0.000000 )  
               b(2) = (  0.000000  1.000000  0.000000 )  
               b(3) = (  0.000000  0.000000  1.488987 )  


     PseudoPot. # 1 for Sn read from file:
     ../../Pseudo_potentials/Sn_PBE.upf
     MD5 check sum: 78e6386ae56e929f0568ae8bf606a80c
     Pseudo is Norm-conserving + core correction, Zval = 14.0
     Generated using ONCVPSP code by D. R. Hamann
     Using radial grid of 1628 points,  6 beta functions with: 
                l(1) =   0
                l(2) =   0
                l(3) =   1
                l(4) =   1
                l(5) =   2
                l(6) =   2

     PseudoPot. # 2 for O  read from file:
     ../../Pseudo_potentials/O_PBE.upf
     MD5 check sum: 3e3f909f7470e8921608ab6b1f57bbae
     Pseudo is Norm-conserving + core correction, Zval =  6.0
     Generated using ONCVPSP code by D. R. Hamann
     Using radial grid of  936 points,  5 beta functions with: 
                l(1) =   0
                l(2) =   0
                l(3) =   1
                l(4) =   1
                l(5) =   2

     atomic species   valence    mass     pseudopotential
        Sn            14.00   118.71000     Sn( 1.00)
        O              6.00    15.99900     O ( 1.00)

      4 Sym. Ops. (no inversion) found



   Cartesian axes

     site n.     atom                  positions (alat units)
         1           Sn  tau(   1) = (  -0.0003320  -0.0003320   0.0000000  )
         2           Sn  tau(   2) = (   0.4996675   0.4996675   0.3357989  )
         3           O   tau(   3) = (   0.8063692   0.1929618   0.3357989  )
         4           O   tau(   4) = (   0.1929618   0.8063692   0.3357989  )
         5           O   tau(   5) = (   0.3063705   0.3063705   0.0000000  )
         6           O   tau(   6) = (   0.6929630   0.6929630   0.0000000  )

     number of k points=  1872

     Number of k-points >= 100: set verbosity='high' to print them.

     Dense  grid:    44945 G-vectors     FFT dimensions: (  54,  54,  36)

     Estimated max dynamical RAM per process >       7.06 MB

     Estimated total dynamical RAM >     112.94 MB

     Check: negative/imaginary core charge=   -0.000002    0.000000

     The potential is recalculated from file :
     ./_ph0/epw.save/charge-density.dat

     Starting wfc are   34 atomic wfcs

     Band Structure Calculation
     Davidson diagonalization with overlap

     ethr =  1.92E-11,  avg # of iterations = 12.2

     total cpu time spent up to now is     1737.0 secs

     End of band structure calculation

     Number of k-points >= 100: set verbosity='high' to print the bands.

     highest occupied level (ev):     8.9024

     Writing output data file epw.save

     Phonon dispersions for SnO2                                                

     bravais-lattice index     =            6
     lattice parameter (alat)  =       9.1370  a.u.
     unit-cell volume          =     512.3005 (a.u.)^3
     number of atoms/cell      =            6
     number of atomic types    =            2
     kinetic-energy cut-off    =      75.0000  Ry
     charge density cut-off    =     300.0000  Ry
     convergence threshold     =      1.0E-14
     beta                      =       0.7000
     number of iterations used =            4
     Exchange-correlation      = PBE ( 1  4  3  4 0 0)


     celldm(1)=    9.13703  celldm(2)=    1.00000  celldm(3)=    0.67160
     celldm(4)=    0.00000  celldm(5)=    0.00000  celldm(6)=    0.00000

     crystal axes: (cart. coord. in units of alat)
               a(1) = (  1.0000  0.0000  0.0000 )  
               a(2) = (  0.0000  1.0000  0.0000 )  
               a(3) = (  0.0000  0.0000  0.6716 )  

     reciprocal axes: (cart. coord. in units 2 pi/alat)
               b(1) = (  1.0000  0.0000  0.0000 )  
               b(2) = (  0.0000  1.0000  0.0000 )  
               b(3) = (  0.0000  0.0000  1.4890 )  


     Atoms inside the unit cell: 

     Cartesian axes

     site n.  atom      mass           positions (alat units)
        1     Sn 118.7100   tau(    1) = (   -0.00033   -0.00033    0.00000  )
        2     Sn 118.7100   tau(    2) = (    0.49967    0.49967    0.33580  )
        3     O   15.9990   tau(    3) = (    0.80637    0.19296    0.33580  )
        4     O   15.9990   tau(    4) = (    0.19296    0.80637    0.33580  )
        5     O   15.9990   tau(    5) = (    0.30637    0.30637    0.00000  )
        6     O   15.9990   tau(    6) = (    0.69296    0.69296    0.00000  )

     Computing dynamical matrix for 
                    q = (   0.0000000   0.0000000   0.3722466 )
 
      2 Sym.Ops. (no q -> -q+G )


     G cutoff =  634.4127  (   2810 G-vectors)     FFT grid: ( 54, 54, 36)
     number of k points=  1872

     PseudoPot. # 1 for Sn read from file:
     ../../Pseudo_potentials/Sn_PBE.upf
     MD5 check sum: 78e6386ae56e929f0568ae8bf606a80c
     Pseudo is Norm-conserving + core correction, Zval = 14.0
     Generated using ONCVPSP code by D. R. Hamann
     Using radial grid of 1628 points,  6 beta functions with: 
                l(1) =   0
                l(2) =   0
                l(3) =   1
                l(4) =   1
                l(5) =   2
                l(6) =   2

     PseudoPot. # 2 for O  read from file:
     ../../Pseudo_potentials/O_PBE.upf
     MD5 check sum: 3e3f909f7470e8921608ab6b1f57bbae
     Pseudo is Norm-conserving + core correction, Zval =  6.0
     Generated using ONCVPSP code by D. R. Hamann
     Using radial grid of  936 points,  5 beta functions with: 
                l(1) =   0
                l(2) =   0
                l(3) =   1
                l(4) =   1
                l(5) =   2

     Mode symmetry, C_s (m)     point group:


     Atomic displacements:
     There are  18 irreducible representations

     Representation     1      1 modes -A'  To be done

     Representation     2      1 modes -A'  To be done

     Representation     3      1 modes -A'  To be done

     Representation     4      1 modes -A'  To be done

     Representation     5      1 modes -A'  To be done

     Representation     6      1 modes -A'  To be done

     Representation     7      1 modes -A'  To be done

     Representation     8      1 modes -A'  To be done

     Representation     9      1 modes -A'  To be done

     Representation    10      1 modes -A'  To be done

     Representation    11      1 modes -A'  To be done

     Representation    12      1 modes -A''  To be done

     Representation    13      1 modes -A''  To be done

     Representation    14      1 modes -A''  To be done

     Representation    15      1 modes -A''  To be done

     Representation    16      1 modes -A''  To be done

     Representation    17      1 modes -A''  To be done

     Representation    18      1 modes -A''  To be done



     Alpha used in Ewald sum =   2.7000
     PHONON       :     9h17m CPU       16h27m WALL



     Representation #  1 mode #   1

     Self-consistent Calculation

      iter #   1 total cpu time : 60043.2 secs   av.it.:   7.9
      thresh= 1.000E-02 alpha_mix =  0.700 |ddv_scf|^2 =  6.214E-05

      iter #   2 total cpu time : 61139.0 secs   av.it.:  12.4
      thresh= 7.883E-04 alpha_mix =  0.700 |ddv_scf|^2 =  2.740E-04

      iter #   3 total cpu time : 62069.4 secs   av.it.:  10.5
      thresh= 1.655E-03 alpha_mix =  0.700 |ddv_scf|^2 =  3.672E-07

      iter #   4 total cpu time : 63214.2 secs   av.it.:  13.3
      thresh= 6.060E-05 alpha_mix =  0.700 |ddv_scf|^2 =  1.257E-07

      iter #   5 total cpu time : 64316.0 secs   av.it.:  12.2
      thresh= 3.545E-05 alpha_mix =  0.700 |ddv_scf|^2 =  2.047E-09

      iter #   6 total cpu time : 65444.4 secs   av.it.:  13.3
      thresh= 4.524E-06 alpha_mix =  0.700 |ddv_scf|^2 =  3.716E-10

      iter #   7 total cpu time : 66560.8 secs   av.it.:  13.3
      thresh= 1.928E-06 alpha_mix =  0.700 |ddv_scf|^2 =  8.627E-11

      iter #   8 total cpu time : 67630.5 secs   av.it.:  12.4
      thresh= 9.288E-07 alpha_mix =  0.700 |ddv_scf|^2 =  8.110E-13

      iter #   9 total cpu time : 68862.3 secs   av.it.:  14.3
      thresh= 9.006E-08 alpha_mix =  0.700 |ddv_scf|^2 =  8.838E-13

      iter #  10 total cpu time : 69974.7 secs   av.it.:  13.3
      thresh= 9.401E-08 alpha_mix =  0.700 |ddv_scf|^2 =  1.317E-13

      iter #  11 total cpu time : 71051.3 secs   av.it.:  13.3
      thresh= 3.629E-08 alpha_mix =  0.700 |ddv_scf|^2 =  2.407E-14

      iter #  12 total cpu time : 72133.8 secs   av.it.:  12.9
      thresh= 1.552E-08 alpha_mix =  0.700 |ddv_scf|^2 =  9.917E-15

     End of self-consistent calculation

     Convergence has been achieved 


     Representation #  2 mode #   2

     Self-consistent Calculation

      iter #   1 total cpu time : 72959.2 secs   av.it.:   9.0
      thresh= 1.000E-02 alpha_mix =  0.700 |ddv_scf|^2 =  1.651E-04

      iter #   2 total cpu time : 74083.2 secs   av.it.:  12.8
      thresh= 1.285E-03 alpha_mix =  0.700 |ddv_scf|^2 =  7.663E-04

      iter #   3 total cpu time : 75049.3 secs   av.it.:  10.8
      thresh= 2.768E-03 alpha_mix =  0.700 |ddv_scf|^2 =  1.140E-06

      iter #   4 total cpu time : 76141.2 secs   av.it.:  13.3
      thresh= 1.068E-04 alpha_mix =  0.700 |ddv_scf|^2 =  6.082E-08

      iter #   5 total cpu time : 77273.3 secs   av.it.:  13.2
      thresh= 2.466E-05 alpha_mix =  0.700 |ddv_scf|^2 =  1.579E-08

      iter #   6 total cpu time : 78406.4 secs   av.it.:  12.9
      thresh= 1.257E-05 alpha_mix =  0.700 |ddv_scf|^2 =  3.212E-09

      iter #   7 total cpu time : 79514.3 secs   av.it.:  12.5
      thresh= 5.667E-06 alpha_mix =  0.700 |ddv_scf|^2 =  7.968E-11

      iter #   8 total cpu time : 80810.0 secs   av.it.:  13.3
      thresh= 8.926E-07 alpha_mix =  0.700 |ddv_scf|^2 =  9.812E-12

      iter #   9 total cpu time : 82100.7 secs   av.it.:  13.5
      thresh= 3.132E-07 alpha_mix =  0.700 |ddv_scf|^2 =  2.024E-12

      iter #  10 total cpu time : 83285.8 secs   av.it.:  13.6
      thresh= 1.423E-07 alpha_mix =  0.700 |ddv_scf|^2 =  9.141E-13

      iter #  11 total cpu time : 84405.3 secs   av.it.:  13.1
      thresh= 9.561E-08 alpha_mix =  0.700 |ddv_scf|^2 =  1.664E-13

      iter #  12 total cpu time : 85515.4 secs   av.it.:  12.7
      thresh= 4.079E-08 alpha_mix =  0.700 |ddv_scf|^2 =  1.866E-14

      iter #  13 total cpu time : 86683.3 secs   av.it.:  13.7
      thresh= 1.366E-08 alpha_mix =  0.700 |ddv_scf|^2 =  1.218E-14

      iter #  14 total cpu time : 87762.3 secs   av.it.:  12.4
      thresh= 1.104E-08 alpha_mix =  0.700 |ddv_scf|^2 =  2.973E-16

     End of self-consistent calculation

     Convergence has been achieved 


     Representation #  3 mode #   3

     Self-consistent Calculation

      iter #   1 total cpu time : 88551.1 secs   av.it.:   7.9
      thresh= 1.000E-02 alpha_mix =  0.700 |ddv_scf|^2 =  3.735E-05

      iter #   2 total cpu time : 89692.4 secs   av.it.:  12.7
      thresh= 6.112E-04 alpha_mix =  0.700 |ddv_scf|^2 =  1.607E-04

      iter #   3 total cpu time : 90660.4 secs   av.it.:  10.5
      thresh= 1.268E-03 alpha_mix =  0.700 |ddv_scf|^2 =  3.005E-07

      iter #   4 total cpu time : 91817.5 secs   av.it.:  13.4
      thresh= 5.482E-05 alpha_mix =  0.700 |ddv_scf|^2 =  8.863E-08

      iter #   5 total cpu time : 92924.4 secs   av.it.:  12.4
      thresh= 2.977E-05 alpha_mix =  0.700 |ddv_scf|^2 =  1.991E-09

      iter #   6 total cpu time : 94093.1 secs   av.it.:  13.4
      thresh= 4.462E-06 alpha_mix =  0.700 |ddv_scf|^2 =  3.506E-10

      iter #   7 total cpu time : 95251.0 secs   av.it.:  13.4
      thresh= 1.872E-06 alpha_mix =  0.700 |ddv_scf|^2 =  6.241E-11

      iter #   8 total cpu time : 96386.2 secs   av.it.:  12.9
      thresh= 7.900E-07 alpha_mix =  0.700 |ddv_scf|^2 =  1.682E-12

      iter #   9 total cpu time : 97613.1 secs   av.it.:  14.2
      thresh= 1.297E-07 alpha_mix =  0.700 |ddv_scf|^2 =  2.280E-12

      iter #  10 total cpu time : 98762.5 secs   av.it.:  13.2
      thresh= 1.510E-07 alpha_mix =  0.700 |ddv_scf|^2 =  6.872E-14

      iter #  11 total cpu time : 99957.9 secs   av.it.:  13.8
      thresh= 2.621E-08 alpha_mix =  0.700 |ddv_scf|^2 =  1.830E-14

      iter #  12 total cpu time :101118.7 secs   av.it.:  13.3
      thresh= 1.353E-08 alpha_mix =  0.700 |ddv_scf|^2 =  7.120E-15

     End of self-consistent calculation

     Convergence has been achieved 


     Representation #  4 mode #   4

     Self-consistent Calculation

      iter #   1 total cpu time :101901.8 secs   av.it.:   7.5
      thresh= 1.000E-02 alpha_mix =  0.700 |ddv_scf|^2 =  1.394E-05

      iter #   2 total cpu time :103039.3 secs   av.it.:  12.9
      thresh= 3.734E-04 alpha_mix =  0.700 |ddv_scf|^2 =  5.718E-05

      iter #   3 total cpu time :104028.5 secs   av.it.:  10.6
      thresh= 7.562E-04 alpha_mix =  0.700 |ddv_scf|^2 =  1.875E-07

      iter #   4 total cpu time :105166.4 secs   av.it.:  13.2
      thresh= 4.330E-05 alpha_mix =  0.700 |ddv_scf|^2 =  4.198E-08

      iter #   5 total cpu time :106288.2 secs   av.it.:  12.7
      thresh= 2.049E-05 alpha_mix =  0.700 |ddv_scf|^2 =  1.762E-09

      iter #   6 total cpu time :107443.0 secs   av.it.:  13.0
      thresh= 4.198E-06 alpha_mix =  0.700 |ddv_scf|^2 =  1.451E-10

      iter #   7 total cpu time :108620.2 secs   av.it.:  13.6
      thresh= 1.205E-06 alpha_mix =  0.700 |ddv_scf|^2 =  6.627E-11

      iter #   8 total cpu time :109734.2 secs   av.it.:  12.5
      thresh= 8.141E-07 alpha_mix =  0.700 |ddv_scf|^2 =  2.179E-12

      iter #   9 total cpu time :110936.5 secs   av.it.:  13.8
      thresh= 1.476E-07 alpha_mix =  0.700 |ddv_scf|^2 =  5.125E-13

      iter #  10 total cpu time :112133.0 secs   av.it.:  13.9
      thresh= 7.159E-08 alpha_mix =  0.700 |ddv_scf|^2 =  3.242E-13

      iter #  11 total cpu time :113286.3 secs   av.it.:  13.0
      thresh= 5.693E-08 alpha_mix =  0.700 |ddv_scf|^2 =  2.110E-14

      iter #  12 total cpu time :114434.2 secs   av.it.:  13.3
      thresh= 1.452E-08 alpha_mix =  0.700 |ddv_scf|^2 =  1.738E-14

      iter #  13 total cpu time :115578.8 secs   av.it.:  13.1
      thresh= 1.318E-08 alpha_mix =  0.700 |ddv_scf|^2 =  8.311E-15

     End of self-consistent calculation

     Convergence has been achieved 


     Representation #  5 mode #   5

     Self-consistent Calculation

      iter #   1 total cpu time :116469.6 secs   av.it.:   9.0
      thresh= 1.000E-02 alpha_mix =  0.700 |ddv_scf|^2 =  1.543E-04

      iter #   2 total cpu time :117619.3 secs   av.it.:  12.9
      thresh= 1.242E-03 alpha_mix =  0.700 |ddv_scf|^2 =  7.136E-04

      iter #   3 total cpu time :118595.8 secs   av.it.:  10.8
      thresh= 2.671E-03 alpha_mix =  0.700 |ddv_scf|^2 =  1.139E-06

      iter #   4 total cpu time :119760.2 secs   av.it.:  13.4
      thresh= 1.067E-04 alpha_mix =  0.700 |ddv_scf|^2 =  5.958E-08

      iter #   5 total cpu time :120911.7 secs   av.it.:  13.3
      thresh= 2.441E-05 alpha_mix =  0.700 |ddv_scf|^2 =  1.502E-08

      iter #   6 total cpu time :122059.8 secs   av.it.:  13.0
      thresh= 1.226E-05 alpha_mix =  0.700 |ddv_scf|^2 =  3.060E-09

      iter #   7 total cpu time :123176.9 secs   av.it.:  12.5
      thresh= 5.532E-06 alpha_mix =  0.700 |ddv_scf|^2 =  8.231E-11

      iter #   8 total cpu time :124340.8 secs   av.it.:  13.5
      thresh= 9.073E-07 alpha_mix =  0.700 |ddv_scf|^2 =  1.415E-11

      iter #   9 total cpu time :125511.5 secs   av.it.:  13.5
      thresh= 3.762E-07 alpha_mix =  0.700 |ddv_scf|^2 =  3.629E-12

      iter #  10 total cpu time :126723.9 secs   av.it.:  13.6
      thresh= 1.905E-07 alpha_mix =  0.700 |ddv_scf|^2 =  9.019E-13

      iter #  11 total cpu time :127875.2 secs   av.it.:  13.3
      thresh= 9.497E-08 alpha_mix =  0.700 |ddv_scf|^2 =  2.494E-13

      iter #  12 total cpu time :128990.7 secs   av.it.:  12.6
      thresh= 4.994E-08 alpha_mix =  0.700 |ddv_scf|^2 =  2.638E-14

      iter #  13 total cpu time :130204.8 secs   av.it.:  13.7
      thresh= 1.624E-08 alpha_mix =  0.700 |ddv_scf|^2 =  4.018E-14

      iter #  14 total cpu time :131293.6 secs   av.it.:  12.2
      thresh= 2.005E-08 alpha_mix =  0.700 |ddv_scf|^2 =  9.482E-16

     End of self-consistent calculation

     Convergence has been achieved 


     Representation #  6 mode #   6

     Self-consistent Calculation

      iter #   1 total cpu time :132198.1 secs   av.it.:   8.6
      thresh= 1.000E-02 alpha_mix =  0.700 |ddv_scf|^2 =  1.188E-05

      iter #   2 total cpu time :133509.5 secs   av.it.:  14.1
      thresh= 3.447E-04 alpha_mix =  0.700 |ddv_scf|^2 =  1.602E-05

      iter #   3 total cpu time :134728.9 secs   av.it.:  13.0
      thresh= 4.002E-04 alpha_mix =  0.700 |ddv_scf|^2 =  1.880E-06

      iter #   4 total cpu time :135840.0 secs   av.it.:  12.5
      thresh= 1.371E-04 alpha_mix =  0.700 |ddv_scf|^2 =  4.200E-08

      iter #   5 total cpu time :136971.8 secs   av.it.:  12.5
      thresh= 2.050E-05 alpha_mix =  0.700 |ddv_scf|^2 =  3.579E-09

      iter #   6 total cpu time :138468.3 secs   av.it.:  13.2
      thresh= 5.982E-06 alpha_mix =  0.700 |ddv_scf|^2 =  7.426E-11

      iter #   7 total cpu time :139901.9 secs   av.it.:  14.1
      thresh= 8.618E-07 alpha_mix =  0.700 |ddv_scf|^2 =  6.155E-11

      iter #   8 total cpu time :141279.1 secs   av.it.:  13.1
      thresh= 7.845E-07 alpha_mix =  0.700 |ddv_scf|^2 =  4.683E-12

      iter #   9 total cpu time :142648.4 secs   av.it.:  13.6
      thresh= 2.164E-07 alpha_mix =  0.700 |ddv_scf|^2 =  1.864E-12

      iter #  10 total cpu time :143943.7 secs   av.it.:  12.9
      thresh= 1.365E-07 alpha_mix =  0.700 |ddv_scf|^2 =  9.096E-14

      iter #  11 total cpu time :145219.9 secs   av.it.:  13.3
      thresh= 3.016E-08 alpha_mix =  0.700 |ddv_scf|^2 =  3.550E-15

     End of self-consistent calculation

     Convergence has been achieved 


     Representation #  7 mode #   7

     Self-consistent Calculation

      iter #   1 total cpu time :146079.7 secs   av.it.:   7.9
      thresh= 1.000E-02 alpha_mix =  0.700 |ddv_scf|^2 =  1.103E-05

      iter #   2 total cpu time :147368.9 secs   av.it.:  13.3
      thresh= 3.321E-04 alpha_mix =  0.700 |ddv_scf|^2 =  4.132E-05

      iter #   3 total cpu time :148410.7 secs   av.it.:  10.9
      thresh= 6.428E-04 alpha_mix =  0.700 |ddv_scf|^2 =  4.048E-07

      iter #   4 total cpu time :149655.6 secs   av.it.:  12.9
      thresh= 6.362E-05 alpha_mix =  0.700 |ddv_scf|^2 =  1.937E-08

      iter #   5 total cpu time :150865.5 secs   av.it.:  13.0
      thresh= 1.392E-05 alpha_mix =  0.700 |ddv_scf|^2 =  1.833E-09

      iter #   6 total cpu time :152096.7 secs   av.it.:  13.1
      thresh= 4.282E-06 alpha_mix =  0.700 |ddv_scf|^2 =  1.238E-10

      iter #   7 total cpu time :153391.9 secs   av.it.:  13.8
      thresh= 1.113E-06 alpha_mix =  0.700 |ddv_scf|^2 =  6.290E-11

      iter #   8 total cpu time :154565.5 secs   av.it.:  12.5
      thresh= 7.931E-07 alpha_mix =  0.700 |ddv_scf|^2 =  1.839E-12

      iter #   9 total cpu time :155877.6 secs   av.it.:  14.2
      thresh= 1.356E-07 alpha_mix =  0.700 |ddv_scf|^2 =  3.895E-13

      iter #  10 total cpu time :157240.0 secs   av.it.:  14.1
      thresh= 6.241E-08 alpha_mix =  0.700 |ddv_scf|^2 =  2.749E-13

      iter #  11 total cpu time :158686.5 secs   av.it.:  13.2
      thresh= 5.244E-08 alpha_mix =  0.700 |ddv_scf|^2 =  4.441E-14

      iter #  12 total cpu time :160030.5 secs   av.it.:  13.2
      thresh= 2.107E-08 alpha_mix =  0.700 |ddv_scf|^2 =  2.620E-14

      iter #  13 total cpu time :161556.4 secs   av.it.:  13.2
      thresh= 1.619E-08 alpha_mix =  0.700 |ddv_scf|^2 =  1.005E-14

      iter #  14 total cpu time :162833.6 secs   av.it.:  12.3
      thresh= 1.002E-08 alpha_mix =  0.700 |ddv_scf|^2 =  6.916E-16

     End of self-consistent calculation

     Convergence has been achieved 


     Representation #  8 mode #   8

     Self-consistent Calculation

      iter #   1 total cpu time :163708.3 secs   av.it.:   7.7
      thresh= 1.000E-02 alpha_mix =  0.700 |ddv_scf|^2 =  8.550E-06

      iter #   2 total cpu time :165017.4 secs   av.it.:  13.5
      thresh= 2.924E-04 alpha_mix =  0.700 |ddv_scf|^2 =  2.352E-05

      iter #   3 total cpu time :166113.3 secs   av.it.:  11.3
      thresh= 4.850E-04 alpha_mix =  0.700 |ddv_scf|^2 =  9.059E-07

      iter #   4 total cpu time :167284.4 secs   av.it.:  12.3
      thresh= 9.518E-05 alpha_mix =  0.700 |ddv_scf|^2 =  1.343E-08

      iter #   5 total cpu time :168524.6 secs   av.it.:  13.2
      thresh= 1.159E-05 alpha_mix =  0.700 |ddv_scf|^2 =  2.345E-09

      iter #   6 total cpu time :169696.7 secs   av.it.:  12.8
      thresh= 4.842E-06 alpha_mix =  0.700 |ddv_scf|^2 =  7.011E-11

      iter #   7 total cpu time :171236.5 secs   av.it.:  14.1
      thresh= 8.373E-07 alpha_mix =  0.700 |ddv_scf|^2 =  5.112E-11

      iter #   8 total cpu time :172619.7 secs   av.it.:  12.7
      thresh= 7.150E-07 alpha_mix =  0.700 |ddv_scf|^2 =  6.326E-12

      iter #   9 total cpu time :174908.4 secs   av.it.:  13.1
      thresh= 2.515E-07 alpha_mix =  0.700 |ddv_scf|^2 =  6.940E-13

      iter #  10 total cpu time :177901.9 secs   av.it.:  13.5
      thresh= 8.331E-08 alpha_mix =  0.700 |ddv_scf|^2 =  8.578E-14

      iter #  11 total cpu time :183294.5 secs   av.it.:  13.6
      thresh= 2.929E-08 alpha_mix =  0.700 |ddv_scf|^2 =  4.190E-14

      iter #  12 total cpu time :185096.8 secs   av.it.:  13.1
      thresh= 2.047E-08 alpha_mix =  0.700 |ddv_scf|^2 =  7.219E-15

     End of self-consistent calculation

     Convergence has been achieved 


     Representation #  9 mode #   9

     Self-consistent Calculation

      iter #   1 total cpu time :186159.5 secs   av.it.:   8.6
      thresh= 1.000E-02 alpha_mix =  0.700 |ddv_scf|^2 =  2.171E-05

      iter #   2 total cpu time :187668.9 secs   av.it.:  13.8
      thresh= 4.659E-04 alpha_mix =  0.700 |ddv_scf|^2 =  6.548E-05

      iter #   3 total cpu time :188990.5 secs   av.it.:  11.7
      thresh= 8.092E-04 alpha_mix =  0.700 |ddv_scf|^2 =  1.919E-06
