
     Program PWSCF v.6.2.2 starts on  5May2018 at 20:48:13 

     This program is part of the open-source Quantum ESPRESSO suite
     for quantum simulation of materials; please cite
         "P. Giannozzi et al., J. Phys.:Condens. Matter 21 395502 (2009);
         "P. Giannozzi et al., J. Phys.:Condens. Matter 29 465901 (2017);
          URL http://www.quantum-espresso.org", 
     in publications or presentations arising from this work. More details at
     http://www.quantum-espresso.org/quote

     Parallel version (MPI), running on     4 processors

     MPI processes distributed on     1 nodes
     R & G space division:  proc/nbgrp/npool/nimage =       4
     Waiting for input...
     Reading input from standard input
Warning: card  &IONS ignored
Warning: card  / ignored
Warning: card  &CELL ignored
Warning: card  / ignored

     Current dimensions of program PWSCF are:
     Max number of different atomic species (ntypx) = 10
     Max number of k-points (npk) =  40000
     Max angular momentum in pseudopotentials (lmaxx) =  3

     Subspace diagonalization in iterative solution of the eigenvalue problem:
     a serial algorithm will be used

 
     Parallelization info
     --------------------
     sticks:   dense  smooth     PW     G-vecs:    dense   smooth      PW
     Min         500     500    147                11236    11236    1788
     Max         501     501    149                11237    11237    1789
     Sum        2001    2001    593                44945    44945    7155
 


     bravais-lattice index     =            6
     lattice parameter (alat)  =       9.1370  a.u.
     unit-cell volume          =     512.3005 (a.u.)^3
     number of atoms/cell      =            6
     number of atomic types    =            2
     number of electrons       =        52.00
     number of Kohn-Sham states=           26
     kinetic-energy cutoff     =      75.0000  Ry
     charge density cutoff     =     300.0000  Ry
     convergence threshold     =      1.0E-20
     mixing beta               =       0.7000
     number of iterations used =            8  plain     mixing
     Exchange-correlation      = PBE ( 1  4  3  4 0 0)

     celldm(1)=   9.137033  celldm(2)=   0.000000  celldm(3)=   0.671598
     celldm(4)=   0.000000  celldm(5)=   0.000000  celldm(6)=   0.000000

     crystal axes: (cart. coord. in units of alat)
               a(1) = (   1.000000   0.000000   0.000000 )  
               a(2) = (   0.000000   1.000000   0.000000 )  
               a(3) = (   0.000000   0.000000   0.671598 )  

     reciprocal axes: (cart. coord. in units 2 pi/alat)
               b(1) = (  1.000000  0.000000  0.000000 )  
               b(2) = (  0.000000  1.000000  0.000000 )  
               b(3) = (  0.000000  0.000000  1.488987 )  


     PseudoPot. # 1 for Sn read from file:
     ../../Pseudo_potentials/Sn_PBE.upf
     MD5 check sum: 78e6386ae56e929f0568ae8bf606a80c
     Pseudo is Norm-conserving + core correction, Zval = 14.0
     Generated using ONCVPSP code by D. R. Hamann
     Using radial grid of 1628 points,  6 beta functions with: 
                l(1) =   0
                l(2) =   0
                l(3) =   1
                l(4) =   1
                l(5) =   2
                l(6) =   2

     PseudoPot. # 2 for O  read from file:
     ../../Pseudo_potentials/O_PBE.upf
     MD5 check sum: 3e3f909f7470e8921608ab6b1f57bbae
     Pseudo is Norm-conserving + core correction, Zval =  6.0
     Generated using ONCVPSP code by D. R. Hamann
     Using radial grid of  936 points,  5 beta functions with: 
                l(1) =   0
                l(2) =   0
                l(3) =   1
                l(4) =   1
                l(5) =   2

     atomic species   valence    mass     pseudopotential
        Sn            14.00   118.71000     Sn( 1.00)
        O              6.00    15.99900     O ( 1.00)

      4 Sym. Ops. (no inversion) found



   Cartesian axes

     site n.     atom                  positions (alat units)
         1           Sn  tau(   1) = (  -0.0003320  -0.0003320   0.0000000  )
         2           Sn  tau(   2) = (   0.4996675   0.4996675   0.3357989  )
         3           O   tau(   3) = (   0.8063692   0.1929618   0.3357989  )
         4           O   tau(   4) = (   0.1929618   0.8063692   0.3357989  )
         5           O   tau(   5) = (   0.3063705   0.3063705   0.0000000  )
         6           O   tau(   6) = (   0.6929630   0.6929630   0.0000000  )

     number of k points=   301

     Number of k-points >= 100: set verbosity='high' to print them.

     Dense  grid:    44945 G-vectors     FFT dimensions: (  54,  54,  36)

     Estimated max dynamical RAM per process >     185.95 MB

     Estimated total dynamical RAM >     743.78 MB

     Check: negative/imaginary core charge=   -0.000002    0.000000

     Initial potential from superposition of free atoms

     starting charge   51.99690, renormalised to   52.00000
     Starting wfc are   34 randomized atomic wfcs

     total cpu time spent up to now is       58.4 secs

     Self-consistent Calculation

     iteration #  1     ecut=    75.00 Ry     beta= 0.70
     Davidson diagonalization with overlap
     ethr =  1.00E-02,  avg # of iterations =  2.0

     total cpu time spent up to now is       88.5 secs

     total energy              =    -446.84386762 Ry
     Harris-Foulkes estimate   =    -448.03007853 Ry
     estimated scf accuracy    <       1.60892217 Ry

     iteration #  2     ecut=    75.00 Ry     beta= 0.70
     Davidson diagonalization with overlap
     ethr =  3.09E-03,  avg # of iterations =  3.1

     total cpu time spent up to now is      127.1 secs

     total energy              =    -447.25368585 Ry
     Harris-Foulkes estimate   =    -448.07276332 Ry
     estimated scf accuracy    <       1.69603250 Ry

     iteration #  3     ecut=    75.00 Ry     beta= 0.70
     Davidson diagonalization with overlap
     ethr =  3.09E-03,  avg # of iterations =  3.0

     total cpu time spent up to now is      163.4 secs

     total energy              =    -447.58527642 Ry
     Harris-Foulkes estimate   =    -447.58593938 Ry
     estimated scf accuracy    <       0.00605338 Ry

     iteration #  4     ecut=    75.00 Ry     beta= 0.70
     Davidson diagonalization with overlap
     ethr =  1.16E-05,  avg # of iterations =  3.0

     total cpu time spent up to now is      203.8 secs

     total energy              =    -447.58864375 Ry
     Harris-Foulkes estimate   =    -447.58891615 Ry
     estimated scf accuracy    <       0.00057457 Ry

     iteration #  5     ecut=    75.00 Ry     beta= 0.70
     Davidson diagonalization with overlap
     ethr =  1.10E-06,  avg # of iterations =  2.0

     total cpu time spent up to now is      233.3 secs

     total energy              =    -447.58867726 Ry
     Harris-Foulkes estimate   =    -447.58869228 Ry
     estimated scf accuracy    <       0.00004242 Ry

     iteration #  6     ecut=    75.00 Ry     beta= 0.70
     Davidson diagonalization with overlap
     ethr =  8.16E-08,  avg # of iterations =  3.5

     total cpu time spent up to now is      275.6 secs

     total energy              =    -447.58906548 Ry
     Harris-Foulkes estimate   =    -447.58906765 Ry
     estimated scf accuracy    <       0.00000644 Ry

     iteration #  7     ecut=    75.00 Ry     beta= 0.70
     Davidson diagonalization with overlap
     ethr =  1.24E-08,  avg # of iterations =  3.5

     total cpu time spent up to now is      313.2 secs

     total energy              =    -447.58931795 Ry
     Harris-Foulkes estimate   =    -447.58931882 Ry
     estimated scf accuracy    <       0.00000289 Ry

     iteration #  8     ecut=    75.00 Ry     beta= 0.70
     Davidson diagonalization with overlap
     ethr =  5.55E-09,  avg # of iterations =  3.3

     total cpu time spent up to now is      348.9 secs

     total energy              =    -447.58931824 Ry
     Harris-Foulkes estimate   =    -447.58931850 Ry
     estimated scf accuracy    <       0.00000061 Ry

     iteration #  9     ecut=    75.00 Ry     beta= 0.70
     Davidson diagonalization with overlap
     ethr =  1.17E-09,  avg # of iterations =  2.2

     total cpu time spent up to now is      383.2 secs

     total energy              =    -447.58931830 Ry
     Harris-Foulkes estimate   =    -447.58931832 Ry
     estimated scf accuracy    <       0.00000004 Ry

     iteration # 10     ecut=    75.00 Ry     beta= 0.70
     Davidson diagonalization with overlap
     ethr =  8.59E-11,  avg # of iterations =  3.0

     total cpu time spent up to now is      422.7 secs

     total energy              =    -447.58931831 Ry
     Harris-Foulkes estimate   =    -447.58931831 Ry
     estimated scf accuracy    <          3.7E-09 Ry

     iteration # 11     ecut=    75.00 Ry     beta= 0.70
     Davidson diagonalization with overlap
     ethr =  7.16E-12,  avg # of iterations =  3.0

     total cpu time spent up to now is      457.3 secs

     total energy              =    -447.58931831 Ry
     Harris-Foulkes estimate   =    -447.58931831 Ry
     estimated scf accuracy    <          1.6E-10 Ry

     iteration # 12     ecut=    75.00 Ry     beta= 0.70
     Davidson diagonalization with overlap
     ethr =  3.08E-13,  avg # of iterations =  3.1

     total cpu time spent up to now is      496.3 secs

     total energy              =    -447.58931831 Ry
     Harris-Foulkes estimate   =    -447.58931831 Ry
     estimated scf accuracy    <          6.3E-11 Ry

     iteration # 13     ecut=    75.00 Ry     beta= 0.70
     Davidson diagonalization with overlap
     ethr =  1.21E-13,  avg # of iterations =  3.1

     total cpu time spent up to now is      532.5 secs

     total energy              =    -447.58931831 Ry
     Harris-Foulkes estimate   =    -447.58931831 Ry
     estimated scf accuracy    <          6.8E-12 Ry

     iteration # 14     ecut=    75.00 Ry     beta= 0.70
     Davidson diagonalization with overlap
     ethr =  1.00E-13,  avg # of iterations =  1.0

     total cpu time spent up to now is      560.0 secs

     total energy              =    -447.58931831 Ry
     Harris-Foulkes estimate   =    -447.58931831 Ry
     estimated scf accuracy    <          5.1E-13 Ry

     iteration # 15     ecut=    75.00 Ry     beta= 0.70
     Davidson diagonalization with overlap
     ethr =  1.00E-13,  avg # of iterations =  1.0

     total cpu time spent up to now is      587.4 secs

     total energy              =    -447.58931831 Ry
     Harris-Foulkes estimate   =    -447.58931831 Ry
     estimated scf accuracy    <          8.3E-14 Ry

     iteration # 16     ecut=    75.00 Ry     beta= 0.70
     Davidson diagonalization with overlap
     ethr =  1.00E-13,  avg # of iterations =  1.0

     total cpu time spent up to now is      614.8 secs

     total energy              =    -447.58931831 Ry
     Harris-Foulkes estimate   =    -447.58931831 Ry
     estimated scf accuracy    <          7.5E-14 Ry

     iteration # 17     ecut=    75.00 Ry     beta= 0.70
     Davidson diagonalization with overlap
     ethr =  1.00E-13,  avg # of iterations =  1.0

     total cpu time spent up to now is      642.2 secs

     total energy              =    -447.58931831 Ry
     Harris-Foulkes estimate   =    -447.58931831 Ry
     estimated scf accuracy    <          2.6E-14 Ry

     iteration # 18     ecut=    75.00 Ry     beta= 0.70
     Davidson diagonalization with overlap
     ethr =  1.00E-13,  avg # of iterations =  1.0

     total cpu time spent up to now is      669.6 secs

     total energy              =    -447.58931831 Ry
     Harris-Foulkes estimate   =    -447.58931831 Ry
     estimated scf accuracy    <          4.8E-15 Ry

     iteration # 19     ecut=    75.00 Ry     beta= 0.70
     Davidson diagonalization with overlap
     ethr =  1.00E-13,  avg # of iterations =  1.0

     total cpu time spent up to now is      697.0 secs

     total energy              =    -447.58931831 Ry
     Harris-Foulkes estimate   =    -447.58931831 Ry
     estimated scf accuracy    <          1.6E-16 Ry

     iteration # 20     ecut=    75.00 Ry     beta= 0.70
     Davidson diagonalization with overlap
     ethr =  1.00E-13,  avg # of iterations =  1.0

     total cpu time spent up to now is      724.5 secs

     total energy              =    -447.58931831 Ry
     Harris-Foulkes estimate   =    -447.58931831 Ry
     estimated scf accuracy    <          8.8E-17 Ry

     iteration # 21     ecut=    75.00 Ry     beta= 0.70
     Davidson diagonalization with overlap
     ethr =  1.00E-13,  avg # of iterations =  1.0

     total cpu time spent up to now is      751.9 secs

     total energy              =    -447.58931831 Ry
     Harris-Foulkes estimate   =    -447.58931831 Ry
     estimated scf accuracy    <          1.8E-17 Ry

     iteration # 22     ecut=    75.00 Ry     beta= 0.70
     Davidson diagonalization with overlap
     ethr =  1.00E-13,  avg # of iterations =  1.0

     total cpu time spent up to now is      779.4 secs

     total energy              =    -447.58931831 Ry
     Harris-Foulkes estimate   =    -447.58931831 Ry
     estimated scf accuracy    <          4.3E-17 Ry

     iteration # 23     ecut=    75.00 Ry     beta= 0.70
     Davidson diagonalization with overlap
     ethr =  1.00E-13,  avg # of iterations =  1.0

     total cpu time spent up to now is      806.8 secs

     total energy              =    -447.58931831 Ry
     Harris-Foulkes estimate   =    -447.58931831 Ry
     estimated scf accuracy    <          1.6E-17 Ry

     iteration # 24     ecut=    75.00 Ry     beta= 0.70
     Davidson diagonalization with overlap
     ethr =  1.00E-13,  avg # of iterations =  1.0

     total cpu time spent up to now is      834.3 secs

     total energy              =    -447.58931831 Ry
     Harris-Foulkes estimate   =    -447.58931831 Ry
     estimated scf accuracy    <          2.5E-17 Ry

     iteration # 25     ecut=    75.00 Ry     beta= 0.70
     Davidson diagonalization with overlap
     ethr =  1.00E-13,  avg # of iterations =  1.0

     total cpu time spent up to now is      861.7 secs

     total energy              =    -447.58931831 Ry
     Harris-Foulkes estimate   =    -447.58931831 Ry
     estimated scf accuracy    <          2.0E-18 Ry

     iteration # 26     ecut=    75.00 Ry     beta= 0.70
     Davidson diagonalization with overlap
     ethr =  1.00E-13,  avg # of iterations =  1.0

     total cpu time spent up to now is      889.1 secs

     total energy              =    -447.58931831 Ry
     Harris-Foulkes estimate   =    -447.58931831 Ry
     estimated scf accuracy    <          9.1E-19 Ry

     iteration # 27     ecut=    75.00 Ry     beta= 0.70
     Davidson diagonalization with overlap
     ethr =  1.00E-13,  avg # of iterations =  1.0

     total cpu time spent up to now is      916.5 secs

     total energy              =    -447.58931831 Ry
     Harris-Foulkes estimate   =    -447.58931831 Ry
     estimated scf accuracy    <          4.8E-19 Ry

     iteration # 28     ecut=    75.00 Ry     beta= 0.70
     Davidson diagonalization with overlap
     ethr =  1.00E-13,  avg # of iterations =  1.0

     total cpu time spent up to now is      944.0 secs

     total energy              =    -447.58931831 Ry
     Harris-Foulkes estimate   =    -447.58931831 Ry
     estimated scf accuracy    <          2.1E-19 Ry

     iteration # 29     ecut=    75.00 Ry     beta= 0.70
     Davidson diagonalization with overlap
     ethr =  1.00E-13,  avg # of iterations =  1.0

     total cpu time spent up to now is      971.3 secs

     total energy              =    -447.58931831 Ry
     Harris-Foulkes estimate   =    -447.58931831 Ry
     estimated scf accuracy    <          4.3E-19 Ry

     iteration # 30     ecut=    75.00 Ry     beta= 0.70
     Davidson diagonalization with overlap
     ethr =  1.00E-13,  avg # of iterations =  1.0

     total cpu time spent up to now is      998.5 secs

     total energy              =    -447.58931831 Ry
     Harris-Foulkes estimate   =    -447.58931831 Ry
     estimated scf accuracy    <          3.6E-20 Ry

     iteration # 31     ecut=    75.00 Ry     beta= 0.70
     Davidson diagonalization with overlap
     ethr =  1.00E-13,  avg # of iterations =  1.0

     total cpu time spent up to now is     1025.8 secs

     total energy              =    -447.58931831 Ry
     Harris-Foulkes estimate   =    -447.58931831 Ry
     estimated scf accuracy    <          1.6E-20 Ry

     iteration # 32     ecut=    75.00 Ry     beta= 0.70
     Davidson diagonalization with overlap
     ethr =  1.00E-13,  avg # of iterations =  1.0

     total cpu time spent up to now is     1053.1 secs

     End of self-consistent calculation

     Number of k-points >= 100: set verbosity='high' to print the bands.

     highest occupied level (ev):     8.9024

!    total energy              =    -447.58931831 Ry
     Harris-Foulkes estimate   =    -447.58931831 Ry
     estimated scf accuracy    <          9.2E-21 Ry

     The total energy is the sum of the following terms:

     one-electron contribution =    -125.64517910 Ry
     hartree contribution      =     101.52747703 Ry
     xc contribution           =    -122.07157651 Ry
     ewald contribution        =    -301.40003973 Ry

     convergence has been achieved in  32 iterations

     Forces acting on atoms (cartesian axes, Ry/au):

     atom    1 type  1   force =     0.00000148    0.00000148    0.00000000
     atom    2 type  1   force =     0.00000472    0.00000472    0.00000000
     atom    3 type  2   force =     0.00004329   -0.00004680   -0.00000000
     atom    4 type  2   force =    -0.00004680    0.00004329    0.00000000
     atom    5 type  2   force =     0.00004371    0.00004371    0.00000000
     atom    6 type  2   force =    -0.00004641   -0.00004641    0.00000000

     Total force =     0.000128     Total SCF correction =     0.000000


     Computing stress (Cartesian axis) and pressure

          total   stress  (Ry/bohr**3)                   (kbar)     P=   -4.76
  -0.00003295  -0.00000000   0.00000000         -4.85     -0.00      0.00
  -0.00000000  -0.00003295   0.00000000         -0.00     -4.85      0.00
   0.00000000  -0.00000000  -0.00003124          0.00     -0.00     -4.60


     Writing output data file epw.save
 
     init_run     :     31.02s CPU     49.17s WALL (       1 calls)
     electrons    :    990.80s CPU    994.67s WALL (       1 calls)
     forces       :      2.62s CPU      2.63s WALL (       1 calls)
     stress       :      8.31s CPU      8.32s WALL (       1 calls)

     Called by init_run:
     wfcinit      :     29.89s CPU     46.90s WALL (       1 calls)
     potinit      :      0.44s CPU      0.89s WALL (       1 calls)
     hinit0       :      0.44s CPU      0.89s WALL (       1 calls)

     Called by electrons:
     c_bands      :    851.98s CPU    855.16s WALL (      32 calls)
     sum_band     :    138.19s CPU    138.80s WALL (      32 calls)
     v_of_rho     :      0.79s CPU      1.08s WALL (      33 calls)
     mix_rho      :      0.12s CPU      0.14s WALL (      32 calls)

     Called by c_bands:
     init_us_2    :     18.12s CPU     18.16s WALL (   20167 calls)
     cegterg      :    759.15s CPU    761.93s WALL (    9632 calls)

     Called by sum_band:

     Called by *egterg:
     h_psi        :    673.80s CPU    691.84s WALL (   27054 calls)
     g_psi        :      5.56s CPU      5.53s WALL (   17121 calls)
     cdiaghg      :     31.45s CPU     31.54s WALL (   26753 calls)

     Called by h_psi:
     h_psi:pot    :    671.12s CPU    688.86s WALL (   27054 calls)
     h_psi:calbec :     39.10s CPU     39.83s WALL (   27054 calls)
     vloc_psi     :    595.90s CPU    612.94s WALL (   27054 calls)
     add_vuspsi   :     36.04s CPU     35.99s WALL (   27054 calls)

     General routines
     calbec       :     41.31s CPU     42.04s WALL (   28559 calls)
     fft          :      0.62s CPU      0.99s WALL (     355 calls)
     ffts         :      0.02s CPU      0.03s WALL (      32 calls)
     fftw         :    671.61s CPU    688.85s WALL ( 1415302 calls)
 
     Parallel routines
     fft_scatt_xy :     62.58s CPU     62.86s WALL ( 1415689 calls)
     fft_scatt_yz :     98.25s CPU    126.51s WALL ( 1415689 calls)
 
     PWSCF        : 17m18.23s CPU    17m52.05s WALL

 
   This run was terminated on:  21: 6: 5   5May2018            

=------------------------------------------------------------------------------=
   JOB DONE.
=------------------------------------------------------------------------------=
