
     Program PHONON v.6.2.2 starts on 29Apr2018 at  1:24:24 

     This program is part of the open-source Quantum ESPRESSO suite
     for quantum simulation of materials; please cite
         "P. Giannozzi et al., J. Phys.:Condens. Matter 21 395502 (2009);
         "P. Giannozzi et al., J. Phys.:Condens. Matter 29 465901 (2017);
          URL http://www.quantum-espresso.org", 
     in publications or presentations arising from this work. More details at
     http://www.quantum-espresso.org/quote

     Parallel version (MPI), running on     4 processors

     MPI processes distributed on     1 nodes
     R & G space division:  proc/nbgrp/npool/nimage =       4

     Reading data from directory:
     ./888.save/

     IMPORTANT: XC functional enforced from input :
     Exchange-correlation      = PBE ( 1  4  3  4 0 0)
     Any further DFT definition will be discarded
     Please, verify this is what you really want

 
     Parallelization info
     --------------------
     sticks:   dense  smooth     PW     G-vecs:    dense   smooth      PW
     Min         500     500    147                11236    11236    1788
     Max         501     501    149                11237    11237    1789
     Sum        2001    2001    593                44945    44945    7155
 

     Check: negative/imaginary core charge=   -0.000002    0.000000


     Dynamical matrices for ( 1, 1, 1)  uniform grid of q-points
     (   1 q-points):
       N         xq(1)         xq(2)         xq(3) 
       1   0.000000000   0.000000000   0.000000000

     Calculation of q =    0.0000000   0.0000000   0.0000000

     Phonon dispersions for SnO2                                                

     bravais-lattice index     =            6
     lattice parameter (alat)  =       9.1370  a.u.
     unit-cell volume          =     512.3005 (a.u.)^3
     number of atoms/cell      =            6
     number of atomic types    =            2
     kinetic-energy cut-off    =      75.0000  Ry
     charge density cut-off    =     300.0000  Ry
     convergence threshold     =      1.0E-14
     beta                      =       0.7000
     number of iterations used =            4
     Exchange-correlation      = PBE ( 1  4  3  4 0 0)


     celldm(1)=    9.13703  celldm(2)=    1.00000  celldm(3)=    0.67160
     celldm(4)=    0.00000  celldm(5)=    0.00000  celldm(6)=    0.00000

     crystal axes: (cart. coord. in units of alat)
               a(1) = (  1.0000  0.0000  0.0000 )  
               a(2) = (  0.0000  1.0000  0.0000 )  
               a(3) = (  0.0000  0.0000  0.6716 )  

     reciprocal axes: (cart. coord. in units 2 pi/alat)
               b(1) = (  1.0000  0.0000  0.0000 )  
               b(2) = (  0.0000  1.0000  0.0000 )  
               b(3) = (  0.0000  0.0000  1.4890 )  


     Atoms inside the unit cell: 

     Cartesian axes

     site n.  atom      mass           positions (alat units)
        1     Sn 118.7100   tau(    1) = (   -0.00033   -0.00033    0.00000  )
        2     Sn 118.7100   tau(    2) = (    0.49967    0.49967    0.33580  )
        3     O   15.9990   tau(    3) = (    0.80637    0.19296    0.33580  )
        4     O   15.9990   tau(    4) = (    0.19296    0.80637    0.33580  )
        5     O   15.9990   tau(    5) = (    0.30637    0.30637    0.00000  )
        6     O   15.9990   tau(    6) = (    0.69296    0.69296    0.00000  )

     Computing dynamical matrix for 
                    q = (   0.0000000   0.0000000   0.0000000 )
 
      5 Sym.Ops. (with q -> -q+G )


     G cutoff =  634.4127  (  11237 G-vectors)     FFT grid: ( 54, 54, 36)
     number of k points=   105

     PseudoPot. # 1 for Sn read from file:
     ../../../Pseudo_potentials/Sn_PBE.upf
     MD5 check sum: 78e6386ae56e929f0568ae8bf606a80c
     Pseudo is Norm-conserving + core correction, Zval = 14.0
     Generated using ONCVPSP code by D. R. Hamann
     Using radial grid of 1628 points,  6 beta functions with: 
                l(1) =   0
                l(2) =   0
                l(3) =   1
                l(4) =   1
                l(5) =   2
                l(6) =   2

     PseudoPot. # 2 for O  read from file:
     ../../../Pseudo_potentials/O_PBE.upf
     MD5 check sum: 3e3f909f7470e8921608ab6b1f57bbae
     Pseudo is Norm-conserving + core correction, Zval =  6.0
     Generated using ONCVPSP code by D. R. Hamann
     Using radial grid of  936 points,  5 beta functions with: 
                l(1) =   0
                l(2) =   0
                l(3) =   1
                l(4) =   1
                l(5) =   2

     Mode symmetry, C_2v (mm2)  point group:


     Electric field:
     Dielectric constant
     Born effective charges in two ways 


     Atomic displacements:
     There are  18 irreducible representations

     Representation     1      1 modes -A_1  D_1  S_1  To be done

     Representation     2      1 modes -A_1  D_1  S_1  To be done

     Representation     3      1 modes -A_1  D_1  S_1  To be done

     Representation     4      1 modes -A_1  D_1  S_1  To be done

     Representation     5      1 modes -A_1  D_1  S_1  To be done

     Representation     6      1 modes -A_1  D_1  S_1  To be done

     Representation     7      1 modes -A_2  D_2  S_2  To be done

     Representation     8      1 modes -B_1  D_3  S_3  To be done

     Representation     9      1 modes -B_1  D_3  S_3  To be done

     Representation    10      1 modes -B_1  D_3  S_3  To be done

     Representation    11      1 modes -B_1  D_3  S_3  To be done

     Representation    12      1 modes -B_1  D_3  S_3  To be done

     Representation    13      1 modes -B_1  D_3  S_3  To be done

     Representation    14      1 modes -B_2  D_4  S_4  To be done

     Representation    15      1 modes -B_2  D_4  S_4  To be done

     Representation    16      1 modes -B_2  D_4  S_4  To be done

     Representation    17      1 modes -B_2  D_4  S_4  To be done

     Representation    18      1 modes -B_2  D_4  S_4  To be done



     Alpha used in Ewald sum =   2.7000
     PHONON       :     4.73s CPU        12.77s WALL


     Electric Fields Calculation

      iter #   1 total cpu time :   500.0 secs   av.it.:   7.5
      thresh= 1.000E-02 alpha_mix =  0.700 |ddv_scf|^2 =  4.954E-08

      iter #   2 total cpu time :   695.6 secs   av.it.:  14.3
      thresh= 2.226E-05 alpha_mix =  0.700 |ddv_scf|^2 =  7.729E-08

      iter #   3 total cpu time :   913.6 secs   av.it.:  12.4
      thresh= 2.780E-05 alpha_mix =  0.700 |ddv_scf|^2 =  4.104E-09

      iter #   4 total cpu time :  1142.2 secs   av.it.:  13.5
      thresh= 6.406E-06 alpha_mix =  0.700 |ddv_scf|^2 =  1.752E-10

      iter #   5 total cpu time :  1347.9 secs   av.it.:  13.8
      thresh= 1.323E-06 alpha_mix =  0.700 |ddv_scf|^2 =  1.750E-11

      iter #   6 total cpu time :  1577.8 secs   av.it.:  13.2
      thresh= 4.183E-07 alpha_mix =  0.700 |ddv_scf|^2 =  1.632E-13

      iter #   7 total cpu time :  1769.9 secs   av.it.:  14.7
      thresh= 4.040E-08 alpha_mix =  0.700 |ddv_scf|^2 =  5.242E-14

      iter #   8 total cpu time :  1959.8 secs   av.it.:  13.8
      thresh= 2.290E-08 alpha_mix =  0.700 |ddv_scf|^2 =  5.023E-16

     End of electric fields calculation

          Dielectric constant in cartesian axis 

          (       4.877344481       0.000000006       0.000000000 )
          (       0.000000006       4.877344481       0.000000000 )
          (       0.000000000       0.000000000       5.112233002 )

          Effective charges (d Force / dE) in cartesian axis

           atom      1   Sn 
      Ex  (        4.18403        0.56202        0.00000 )
      Ey  (        0.56202        4.18403        0.00000 )
      Ez  (        0.00000        0.00000        4.59590 )
           atom      2   Sn 
      Ex  (        4.18403       -0.56202       -0.00000 )
      Ey  (       -0.56202        4.18403        0.00000 )
      Ez  (        0.00000        0.00000        4.59590 )
           atom      3   O  
      Ex  (       -2.09221        0.80048        0.00000 )
      Ey  (        0.80047       -2.09217        0.00000 )
      Ez  (        0.00000        0.00000       -2.29902 )
           atom      4   O  
      Ex  (       -2.09217        0.80047        0.00000 )
      Ey  (        0.80048       -2.09221        0.00000 )
      Ez  (        0.00000        0.00000       -2.29902 )
           atom      5   O  
      Ex  (       -2.09218       -0.80047        0.00000 )
      Ey  (       -0.80047       -2.09218        0.00000 )
      Ez  (        0.00000        0.00000       -2.29902 )
           atom      6   O  
      Ex  (       -2.09220       -0.80048        0.00000 )
      Ey  (       -0.80048       -2.09220       -0.00000 )
      Ez  (        0.00000        0.00000       -2.29902 )


     Representation #  1 mode #   1

     Self-consistent Calculation

      iter #   1 total cpu time :  2229.8 secs   av.it.:   6.8
      thresh= 1.000E-02 alpha_mix =  0.700 |ddv_scf|^2 =  2.766E-06

      iter #   2 total cpu time :  2285.3 secs   av.it.:  12.8
      thresh= 1.663E-04 alpha_mix =  0.700 |ddv_scf|^2 =  7.177E-07

      iter #   3 total cpu time :  2341.6 secs   av.it.:  12.7
      thresh= 8.471E-05 alpha_mix =  0.700 |ddv_scf|^2 =  2.417E-07

      iter #   4 total cpu time :  2393.6 secs   av.it.:  11.9
      thresh= 4.917E-05 alpha_mix =  0.700 |ddv_scf|^2 =  1.013E-08

      iter #   5 total cpu time :  2448.7 secs   av.it.:  12.7
      thresh= 1.007E-05 alpha_mix =  0.700 |ddv_scf|^2 =  7.466E-11

      iter #   6 total cpu time :  2506.9 secs   av.it.:  13.4
      thresh= 8.640E-07 alpha_mix =  0.700 |ddv_scf|^2 =  3.624E-11

      iter #   7 total cpu time :  2561.3 secs   av.it.:  12.7
      thresh= 6.020E-07 alpha_mix =  0.700 |ddv_scf|^2 =  1.599E-11

      iter #   8 total cpu time :  2615.0 secs   av.it.:  12.1
      thresh= 3.999E-07 alpha_mix =  0.700 |ddv_scf|^2 =  6.988E-13

      iter #   9 total cpu time :  2671.4 secs   av.it.:  12.6
      thresh= 8.359E-08 alpha_mix =  0.700 |ddv_scf|^2 =  2.488E-14

      iter #  10 total cpu time :  2728.9 secs   av.it.:  13.4
      thresh= 1.577E-08 alpha_mix =  0.700 |ddv_scf|^2 =  1.221E-14

      iter #  11 total cpu time :  2795.3 secs   av.it.:  12.4
      thresh= 1.105E-08 alpha_mix =  0.700 |ddv_scf|^2 =  8.754E-15

     End of self-consistent calculation

     Convergence has been achieved 


     Representation #  2 mode #   2

     Self-consistent Calculation

      iter #   1 total cpu time :  2838.8 secs   av.it.:   7.2
      thresh= 1.000E-02 alpha_mix =  0.700 |ddv_scf|^2 =  9.427E-06

      iter #   2 total cpu time :  2894.8 secs   av.it.:  12.4
      thresh= 3.070E-04 alpha_mix =  0.700 |ddv_scf|^2 =  5.682E-06

      iter #   3 total cpu time :  2950.1 secs   av.it.:  11.5
      thresh= 2.384E-04 alpha_mix =  0.700 |ddv_scf|^2 =  1.455E-07

      iter #   4 total cpu time :  3005.5 secs   av.it.:  12.2
      thresh= 3.815E-05 alpha_mix =  0.700 |ddv_scf|^2 =  5.504E-08

      iter #   5 total cpu time :  3060.3 secs   av.it.:  11.7
      thresh= 2.346E-05 alpha_mix =  0.700 |ddv_scf|^2 =  8.355E-11

      iter #   6 total cpu time :  3118.9 secs   av.it.:  13.0
      thresh= 9.141E-07 alpha_mix =  0.700 |ddv_scf|^2 =  1.310E-11

      iter #   7 total cpu time :  3177.7 secs   av.it.:  13.0
      thresh= 3.620E-07 alpha_mix =  0.700 |ddv_scf|^2 =  1.542E-11

      iter #   8 total cpu time :  3230.4 secs   av.it.:  12.0
      thresh= 3.927E-07 alpha_mix =  0.700 |ddv_scf|^2 =  2.086E-13

      iter #   9 total cpu time :  3298.6 secs   av.it.:  13.2
      thresh= 4.568E-08 alpha_mix =  0.700 |ddv_scf|^2 =  3.493E-14

      iter #  10 total cpu time :  3353.7 secs   av.it.:  12.9
      thresh= 1.869E-08 alpha_mix =  0.700 |ddv_scf|^2 =  2.095E-15

     End of self-consistent calculation

     Convergence has been achieved 


     Representation #  3 mode #   3

     Self-consistent Calculation

      iter #   1 total cpu time :  3400.4 secs   av.it.:   8.3
      thresh= 1.000E-02 alpha_mix =  0.700 |ddv_scf|^2 =  2.414E-05

      iter #   2 total cpu time :  3458.8 secs   av.it.:  13.0
      thresh= 4.914E-04 alpha_mix =  0.700 |ddv_scf|^2 =  2.357E-05

      iter #   3 total cpu time :  3514.5 secs   av.it.:  12.2
      thresh= 4.855E-04 alpha_mix =  0.700 |ddv_scf|^2 =  1.748E-06

      iter #   4 total cpu time :  3567.6 secs   av.it.:  12.0
      thresh= 1.322E-04 alpha_mix =  0.700 |ddv_scf|^2 =  2.379E-09

      iter #   5 total cpu time :  3624.9 secs   av.it.:  12.7
      thresh= 4.878E-06 alpha_mix =  0.700 |ddv_scf|^2 =  5.332E-11

      iter #   6 total cpu time :  3679.4 secs   av.it.:  12.7
      thresh= 7.302E-07 alpha_mix =  0.700 |ddv_scf|^2 =  1.737E-11

      iter #   7 total cpu time :  3733.7 secs   av.it.:  12.5
      thresh= 4.168E-07 alpha_mix =  0.700 |ddv_scf|^2 =  3.178E-13

      iter #   8 total cpu time :  3789.4 secs   av.it.:  13.1
      thresh= 5.637E-08 alpha_mix =  0.700 |ddv_scf|^2 =  1.160E-14

      iter #   9 total cpu time :  3960.5 secs   av.it.:  13.4
      thresh= 1.077E-08 alpha_mix =  0.700 |ddv_scf|^2 =  1.552E-14

      iter #  10 total cpu time :  4014.6 secs   av.it.:  12.1
      thresh= 1.246E-08 alpha_mix =  0.700 |ddv_scf|^2 =  2.281E-15

     End of self-consistent calculation

     Convergence has been achieved 


     Representation #  4 mode #   4

     Self-consistent Calculation

      iter #   1 total cpu time :  4070.8 secs   av.it.:   7.5
      thresh= 1.000E-02 alpha_mix =  0.700 |ddv_scf|^2 =  6.155E-06

      iter #   2 total cpu time :  4134.6 secs   av.it.:  13.0
      thresh= 2.481E-04 alpha_mix =  0.700 |ddv_scf|^2 =  3.430E-06

      iter #   3 total cpu time :  4190.8 secs   av.it.:  12.4
      thresh= 1.852E-04 alpha_mix =  0.700 |ddv_scf|^2 =  1.703E-07

      iter #   4 total cpu time :  4248.2 secs   av.it.:  12.6
      thresh= 4.127E-05 alpha_mix =  0.700 |ddv_scf|^2 =  3.886E-08

      iter #   5 total cpu time :  4345.3 secs   av.it.:  12.1
      thresh= 1.971E-05 alpha_mix =  0.700 |ddv_scf|^2 =  4.075E-10

      iter #   6 total cpu time :  4409.9 secs   av.it.:  13.2
      thresh= 2.019E-06 alpha_mix =  0.700 |ddv_scf|^2 =  2.839E-10

      iter #   7 total cpu time :  4462.5 secs   av.it.:  12.3
      thresh= 1.685E-06 alpha_mix =  0.700 |ddv_scf|^2 =  8.141E-12

      iter #   8 total cpu time :  4518.4 secs   av.it.:  13.2
      thresh= 2.853E-07 alpha_mix =  0.700 |ddv_scf|^2 =  1.074E-12

      iter #   9 total cpu time :  4575.2 secs   av.it.:  13.4
      thresh= 1.037E-07 alpha_mix =  0.700 |ddv_scf|^2 =  1.439E-13

      iter #  10 total cpu time :  4629.3 secs   av.it.:  12.7
      thresh= 3.793E-08 alpha_mix =  0.700 |ddv_scf|^2 =  7.242E-15

     End of self-consistent calculation

     Convergence has been achieved 


     Representation #  5 mode #   5

     Self-consistent Calculation

      iter #   1 total cpu time :  4672.7 secs   av.it.:   8.2
      thresh= 1.000E-02 alpha_mix =  0.700 |ddv_scf|^2 =  2.060E-05

      iter #   2 total cpu time :  4742.3 secs   av.it.:  12.8
      thresh= 4.538E-04 alpha_mix =  0.700 |ddv_scf|^2 =  1.770E-05

      iter #   3 total cpu time :  4794.3 secs   av.it.:  12.2
      thresh= 4.208E-04 alpha_mix =  0.700 |ddv_scf|^2 =  1.809E-06

      iter #   4 total cpu time :  4846.8 secs   av.it.:  12.0
      thresh= 1.345E-04 alpha_mix =  0.700 |ddv_scf|^2 =  2.404E-09

      iter #   5 total cpu time :  4900.8 secs   av.it.:  12.7
      thresh= 4.903E-06 alpha_mix =  0.700 |ddv_scf|^2 =  1.922E-10

      iter #   6 total cpu time :  4954.1 secs   av.it.:  12.3
      thresh= 1.386E-06 alpha_mix =  0.700 |ddv_scf|^2 =  7.470E-11

      iter #   7 total cpu time :  5008.1 secs   av.it.:  12.0
      thresh= 8.643E-07 alpha_mix =  0.700 |ddv_scf|^2 =  1.340E-12

      iter #   8 total cpu time :  5061.7 secs   av.it.:  12.2
      thresh= 1.158E-07 alpha_mix =  0.700 |ddv_scf|^2 =  1.906E-14

      iter #   9 total cpu time :  5124.3 secs   av.it.:  13.0
      thresh= 1.381E-08 alpha_mix =  0.700 |ddv_scf|^2 =  5.176E-15

     End of self-consistent calculation

     Convergence has been achieved 


     Representation #  6 mode #   6

     Self-consistent Calculation

      iter #   1 total cpu time :  5170.0 secs   av.it.:   7.5
      thresh= 1.000E-02 alpha_mix =  0.700 |ddv_scf|^2 =  6.155E-06

      iter #   2 total cpu time :  5228.0 secs   av.it.:  13.0
      thresh= 2.481E-04 alpha_mix =  0.700 |ddv_scf|^2 =  3.430E-06

      iter #   3 total cpu time :  5284.3 secs   av.it.:  12.4
      thresh= 1.852E-04 alpha_mix =  0.700 |ddv_scf|^2 =  1.703E-07

      iter #   4 total cpu time :  5340.1 secs   av.it.:  12.6
      thresh= 4.127E-05 alpha_mix =  0.700 |ddv_scf|^2 =  3.886E-08

      iter #   5 total cpu time :  5393.8 secs   av.it.:  12.1
      thresh= 1.971E-05 alpha_mix =  0.700 |ddv_scf|^2 =  4.075E-10

      iter #   6 total cpu time :  5458.6 secs   av.it.:  13.2
      thresh= 2.019E-06 alpha_mix =  0.700 |ddv_scf|^2 =  2.839E-10

      iter #   7 total cpu time :  5513.4 secs   av.it.:  12.3
      thresh= 1.685E-06 alpha_mix =  0.700 |ddv_scf|^2 =  8.141E-12

      iter #   8 total cpu time :  5572.1 secs   av.it.:  13.2
      thresh= 2.853E-07 alpha_mix =  0.700 |ddv_scf|^2 =  1.074E-12

      iter #   9 total cpu time :  5630.5 secs   av.it.:  13.4
      thresh= 1.037E-07 alpha_mix =  0.700 |ddv_scf|^2 =  1.439E-13

      iter #  10 total cpu time :  5690.3 secs   av.it.:  12.7
      thresh= 3.793E-08 alpha_mix =  0.700 |ddv_scf|^2 =  7.241E-15

     End of self-consistent calculation

     Convergence has been achieved 


     Representation #  7 mode #   7

     Self-consistent Calculation

      iter #   1 total cpu time :  5831.0 secs   av.it.:   6.6
      thresh= 1.000E-02 alpha_mix =  0.700 |ddv_scf|^2 =  1.409E-06

      iter #   2 total cpu time :  5884.2 secs   av.it.:  12.2
      thresh= 1.187E-04 alpha_mix =  0.700 |ddv_scf|^2 =  1.738E-08

      iter #   3 total cpu time :  5939.0 secs   av.it.:  12.4
      thresh= 1.318E-05 alpha_mix =  0.700 |ddv_scf|^2 =  1.996E-10

      iter #   4 total cpu time :  5992.1 secs   av.it.:  12.3
      thresh= 1.413E-06 alpha_mix =  0.700 |ddv_scf|^2 =  1.693E-12

      iter #   5 total cpu time :  6045.6 secs   av.it.:  12.4
      thresh= 1.301E-07 alpha_mix =  0.700 |ddv_scf|^2 =  9.549E-15

     End of self-consistent calculation

     Convergence has been achieved 


     Representation #  8 mode #   8

     Self-consistent Calculation

      iter #   1 total cpu time :  6225.3 secs   av.it.:   6.9
      thresh= 1.000E-02 alpha_mix =  0.700 |ddv_scf|^2 =  4.904E-06

      iter #   2 total cpu time :  6286.4 secs   av.it.:  12.5
      thresh= 2.215E-04 alpha_mix =  0.700 |ddv_scf|^2 =  6.237E-07

      iter #   3 total cpu time :  6341.9 secs   av.it.:  12.4
      thresh= 7.898E-05 alpha_mix =  0.700 |ddv_scf|^2 =  4.791E-08

      iter #   4 total cpu time :  6396.5 secs   av.it.:  12.1
      thresh= 2.189E-05 alpha_mix =  0.700 |ddv_scf|^2 =  5.824E-09

      iter #   5 total cpu time :  6451.1 secs   av.it.:  12.2
      thresh= 7.631E-06 alpha_mix =  0.700 |ddv_scf|^2 =  1.019E-10

      iter #   6 total cpu time :  6509.9 secs   av.it.:  13.2
      thresh= 1.009E-06 alpha_mix =  0.700 |ddv_scf|^2 =  9.005E-12

      iter #   7 total cpu time :  6567.6 secs   av.it.:  13.0
      thresh= 3.001E-07 alpha_mix =  0.700 |ddv_scf|^2 =  2.010E-13

      iter #   8 total cpu time :  6625.7 secs   av.it.:  12.7
      thresh= 4.483E-08 alpha_mix =  0.700 |ddv_scf|^2 =  7.611E-15

     End of self-consistent calculation

     Convergence has been achieved 


     Representation #  9 mode #   9

     Self-consistent Calculation

      iter #   1 total cpu time :  6672.6 secs   av.it.:   8.3
      thresh= 1.000E-02 alpha_mix =  0.700 |ddv_scf|^2 =  2.414E-05

      iter #   2 total cpu time :  6730.2 secs   av.it.:  13.0
      thresh= 4.914E-04 alpha_mix =  0.700 |ddv_scf|^2 =  2.357E-05

      iter #   3 total cpu time :  6784.9 secs   av.it.:  12.1
      thresh= 4.855E-04 alpha_mix =  0.700 |ddv_scf|^2 =  1.748E-06

      iter #   4 total cpu time :  6837.3 secs   av.it.:  12.0
      thresh= 1.322E-04 alpha_mix =  0.700 |ddv_scf|^2 =  2.379E-09

      iter #   5 total cpu time :  6892.6 secs   av.it.:  12.7
      thresh= 4.878E-06 alpha_mix =  0.700 |ddv_scf|^2 =  5.332E-11

      iter #   6 total cpu time :  6947.6 secs   av.it.:  12.7
      thresh= 7.302E-07 alpha_mix =  0.700 |ddv_scf|^2 =  1.737E-11

      iter #   7 total cpu time :  7002.0 secs   av.it.:  12.4
      thresh= 4.168E-07 alpha_mix =  0.700 |ddv_scf|^2 =  3.172E-13

      iter #   8 total cpu time :  7058.8 secs   av.it.:  12.9
      thresh= 5.632E-08 alpha_mix =  0.700 |ddv_scf|^2 =  8.988E-15

     End of self-consistent calculation

     Convergence has been achieved 


     Representation # 10 mode #  10

     Self-consistent Calculation

      iter #   1 total cpu time :  7103.1 secs   av.it.:   6.9
      thresh= 1.000E-02 alpha_mix =  0.700 |ddv_scf|^2 =  3.911E-06

      iter #   2 total cpu time :  7158.1 secs   av.it.:  12.7
      thresh= 1.978E-04 alpha_mix =  0.700 |ddv_scf|^2 =  6.411E-07

      iter #   3 total cpu time :  7212.5 secs   av.it.:  12.8
      thresh= 8.007E-05 alpha_mix =  0.700 |ddv_scf|^2 =  1.593E-07

      iter #   4 total cpu time :  7265.5 secs   av.it.:  11.9
      thresh= 3.992E-05 alpha_mix =  0.700 |ddv_scf|^2 =  5.997E-09

      iter #   5 total cpu time :  7335.4 secs   av.it.:  12.6
      thresh= 7.744E-06 alpha_mix =  0.700 |ddv_scf|^2 =  1.503E-10

      iter #   6 total cpu time :  7397.1 secs   av.it.:  13.1
      thresh= 1.226E-06 alpha_mix =  0.700 |ddv_scf|^2 =  1.023E-11

      iter #   7 total cpu time :  7453.5 secs   av.it.:  12.6
      thresh= 3.198E-07 alpha_mix =  0.700 |ddv_scf|^2 =  4.045E-13

      iter #   8 total cpu time :  7510.9 secs   av.it.:  12.7
      thresh= 6.360E-08 alpha_mix =  0.700 |ddv_scf|^2 =  6.441E-15

     End of self-consistent calculation

     Convergence has been achieved 


     Representation # 11 mode #  11

     Self-consistent Calculation

      iter #   1 total cpu time :  7554.5 secs   av.it.:   7.3
      thresh= 1.000E-02 alpha_mix =  0.700 |ddv_scf|^2 =  3.039E-06

      iter #   2 total cpu time :  7614.5 secs   av.it.:  13.2
      thresh= 1.743E-04 alpha_mix =  0.700 |ddv_scf|^2 =  1.131E-06

      iter #   3 total cpu time :  7671.5 secs   av.it.:  12.6
      thresh= 1.063E-04 alpha_mix =  0.700 |ddv_scf|^2 =  2.734E-07

      iter #   4 total cpu time :  7725.9 secs   av.it.:  11.8
      thresh= 5.229E-05 alpha_mix =  0.700 |ddv_scf|^2 =  6.923E-09

      iter #   5 total cpu time :  7783.4 secs   av.it.:  12.7
      thresh= 8.321E-06 alpha_mix =  0.700 |ddv_scf|^2 =  6.293E-11

      iter #   6 total cpu time :  7842.3 secs   av.it.:  13.3
      thresh= 7.933E-07 alpha_mix =  0.700 |ddv_scf|^2 =  9.211E-12

      iter #   7 total cpu time :  7946.6 secs   av.it.:  13.0
      thresh= 3.035E-07 alpha_mix =  0.700 |ddv_scf|^2 =  6.199E-13

      iter #   8 total cpu time :  8001.5 secs   av.it.:  12.8
      thresh= 7.873E-08 alpha_mix =  0.700 |ddv_scf|^2 =  1.375E-14

      iter #   9 total cpu time :  8060.4 secs   av.it.:  13.5
      thresh= 1.173E-08 alpha_mix =  0.700 |ddv_scf|^2 =  2.127E-15

     End of self-consistent calculation

     Convergence has been achieved 


     Representation # 12 mode #  12

     Self-consistent Calculation

      iter #   1 total cpu time :  8098.6 secs   av.it.:   6.9
      thresh= 1.000E-02 alpha_mix =  0.700 |ddv_scf|^2 =  3.911E-06

      iter #   2 total cpu time :  8153.6 secs   av.it.:  12.7
      thresh= 1.978E-04 alpha_mix =  0.700 |ddv_scf|^2 =  6.411E-07

      iter #   3 total cpu time :  8209.7 secs   av.it.:  12.8
      thresh= 8.007E-05 alpha_mix =  0.700 |ddv_scf|^2 =  1.593E-07

      iter #   4 total cpu time :  8275.0 secs   av.it.:  11.9
      thresh= 3.992E-05 alpha_mix =  0.700 |ddv_scf|^2 =  5.997E-09

      iter #   5 total cpu time :  8331.1 secs   av.it.:  12.6
      thresh= 7.744E-06 alpha_mix =  0.700 |ddv_scf|^2 =  1.503E-10

      iter #   6 total cpu time :  8387.5 secs   av.it.:  13.1
      thresh= 1.226E-06 alpha_mix =  0.700 |ddv_scf|^2 =  1.023E-11

      iter #   7 total cpu time :  8441.5 secs   av.it.:  12.6
      thresh= 3.198E-07 alpha_mix =  0.700 |ddv_scf|^2 =  4.045E-13

      iter #   8 total cpu time :  8498.1 secs   av.it.:  12.7
      thresh= 6.360E-08 alpha_mix =  0.700 |ddv_scf|^2 =  6.441E-15

     End of self-consistent calculation

     Convergence has been achieved 


     Representation # 13 mode #  13

     Self-consistent Calculation

      iter #   1 total cpu time :  8543.5 secs   av.it.:   8.2
      thresh= 1.000E-02 alpha_mix =  0.700 |ddv_scf|^2 =  2.060E-05

      iter #   2 total cpu time :  8598.7 secs   av.it.:  12.8
      thresh= 4.538E-04 alpha_mix =  0.700 |ddv_scf|^2 =  1.770E-05

      iter #   3 total cpu time :  8652.3 secs   av.it.:  12.2
      thresh= 4.208E-04 alpha_mix =  0.700 |ddv_scf|^2 =  1.809E-06

      iter #   4 total cpu time :  8746.7 secs   av.it.:  12.0
      thresh= 1.345E-04 alpha_mix =  0.700 |ddv_scf|^2 =  2.404E-09

      iter #   5 total cpu time :  8803.1 secs   av.it.:  12.7
      thresh= 4.903E-06 alpha_mix =  0.700 |ddv_scf|^2 =  1.922E-10

      iter #   6 total cpu time :  8857.7 secs   av.it.:  12.2
      thresh= 1.386E-06 alpha_mix =  0.700 |ddv_scf|^2 =  7.470E-11

      iter #   7 total cpu time :  8919.6 secs   av.it.:  12.0
      thresh= 8.643E-07 alpha_mix =  0.700 |ddv_scf|^2 =  1.340E-12

      iter #   8 total cpu time :  8974.2 secs   av.it.:  12.1
      thresh= 1.157E-07 alpha_mix =  0.700 |ddv_scf|^2 =  1.857E-14

      iter #   9 total cpu time :  9032.1 secs   av.it.:  12.6
      thresh= 1.363E-08 alpha_mix =  0.700 |ddv_scf|^2 =  2.954E-16

     End of self-consistent calculation

     Convergence has been achieved 


     Representation # 14 mode #  14

     Self-consistent Calculation

      iter #   1 total cpu time :  9087.4 secs   av.it.:   7.7
      thresh= 1.000E-02 alpha_mix =  0.700 |ddv_scf|^2 =  7.083E-06

      iter #   2 total cpu time :  9142.6 secs   av.it.:  12.8
      thresh= 2.661E-04 alpha_mix =  0.700 |ddv_scf|^2 =  1.332E-06

      iter #   3 total cpu time :  9210.9 secs   av.it.:  12.4
      thresh= 1.154E-04 alpha_mix =  0.700 |ddv_scf|^2 =  4.068E-09

      iter #   4 total cpu time :  9323.3 secs   av.it.:  12.6
      thresh= 6.378E-06 alpha_mix =  0.700 |ddv_scf|^2 =  3.079E-10

      iter #   5 total cpu time :  9377.8 secs   av.it.:  12.5
      thresh= 1.755E-06 alpha_mix =  0.700 |ddv_scf|^2 =  6.368E-12

      iter #   6 total cpu time :  9441.7 secs   av.it.:  12.3
      thresh= 2.523E-07 alpha_mix =  0.700 |ddv_scf|^2 =  1.211E-13

      iter #   7 total cpu time :  9502.1 secs   av.it.:  12.7
      thresh= 3.480E-08 alpha_mix =  0.700 |ddv_scf|^2 =  4.649E-15

     End of self-consistent calculation

     Convergence has been achieved 


     Representation # 15 mode #  15

     Self-consistent Calculation

      iter #   1 total cpu time :  9560.5 secs   av.it.:   6.9
      thresh= 1.000E-02 alpha_mix =  0.700 |ddv_scf|^2 =  2.044E-06

      iter #   2 total cpu time :  9621.2 secs   av.it.:  12.9
      thresh= 1.430E-04 alpha_mix =  0.700 |ddv_scf|^2 =  1.778E-07

      iter #   3 total cpu time :  9684.7 secs   av.it.:  12.8
      thresh= 4.216E-05 alpha_mix =  0.700 |ddv_scf|^2 =  4.438E-09

      iter #   4 total cpu time :  9739.8 secs   av.it.:  12.6
      thresh= 6.661E-06 alpha_mix =  0.700 |ddv_scf|^2 =  5.013E-11

      iter #   5 total cpu time :  9833.6 secs   av.it.:  12.7
      thresh= 7.080E-07 alpha_mix =  0.700 |ddv_scf|^2 =  2.815E-12

      iter #   6 total cpu time :  9892.5 secs   av.it.:  12.4
      thresh= 1.678E-07 alpha_mix =  0.700 |ddv_scf|^2 =  8.854E-14

      iter #   7 total cpu time :  9953.4 secs   av.it.:  12.1
      thresh= 2.976E-08 alpha_mix =  0.700 |ddv_scf|^2 =  7.152E-15

     End of self-consistent calculation

     Convergence has been achieved 


     Representation # 16 mode #  16

     Self-consistent Calculation

      iter #   1 total cpu time :  9995.2 secs   av.it.:   7.0
      thresh= 1.000E-02 alpha_mix =  0.700 |ddv_scf|^2 =  1.727E-06

      iter #   2 total cpu time : 10053.9 secs   av.it.:  13.1
      thresh= 1.314E-04 alpha_mix =  0.700 |ddv_scf|^2 =  9.760E-08

      iter #   3 total cpu time : 10117.6 secs   av.it.:  13.2
      thresh= 3.124E-05 alpha_mix =  0.700 |ddv_scf|^2 =  4.210E-09

      iter #   4 total cpu time : 10191.5 secs   av.it.:  12.8
      thresh= 6.489E-06 alpha_mix =  0.700 |ddv_scf|^2 =  4.974E-11

      iter #   5 total cpu time : 10250.2 secs   av.it.:  13.0
      thresh= 7.053E-07 alpha_mix =  0.700 |ddv_scf|^2 =  1.651E-12

      iter #   6 total cpu time : 10307.7 secs   av.it.:  12.7
      thresh= 1.285E-07 alpha_mix =  0.700 |ddv_scf|^2 =  8.958E-14

      iter #   7 total cpu time : 10361.8 secs   av.it.:  12.8
      thresh= 2.993E-08 alpha_mix =  0.700 |ddv_scf|^2 =  6.680E-15

     End of self-consistent calculation

     Convergence has been achieved 


     Representation # 17 mode #  17

     Self-consistent Calculation

      iter #   1 total cpu time : 10406.4 secs   av.it.:   7.7
      thresh= 1.000E-02 alpha_mix =  0.700 |ddv_scf|^2 =  7.083E-06

      iter #   2 total cpu time : 10461.8 secs   av.it.:  12.8
      thresh= 2.661E-04 alpha_mix =  0.700 |ddv_scf|^2 =  1.332E-06

      iter #   3 total cpu time : 10515.4 secs   av.it.:  12.3
      thresh= 1.154E-04 alpha_mix =  0.700 |ddv_scf|^2 =  4.068E-09

      iter #   4 total cpu time : 10617.5 secs   av.it.:  12.6
      thresh= 6.378E-06 alpha_mix =  0.700 |ddv_scf|^2 =  3.079E-10

      iter #   5 total cpu time : 10670.5 secs   av.it.:  12.6
      thresh= 1.755E-06 alpha_mix =  0.700 |ddv_scf|^2 =  6.368E-12

      iter #   6 total cpu time : 10724.7 secs   av.it.:  12.4
      thresh= 2.523E-07 alpha_mix =  0.700 |ddv_scf|^2 =  1.211E-13

      iter #   7 total cpu time : 10780.1 secs   av.it.:  12.7
      thresh= 3.480E-08 alpha_mix =  0.700 |ddv_scf|^2 =  4.649E-15

     End of self-consistent calculation

     Convergence has been achieved 


     Representation # 18 mode #  18

     Self-consistent Calculation

      iter #   1 total cpu time : 10826.4 secs   av.it.:   7.0
      thresh= 1.000E-02 alpha_mix =  0.700 |ddv_scf|^2 =  1.727E-06

      iter #   2 total cpu time : 10883.5 secs   av.it.:  13.1
      thresh= 1.314E-04 alpha_mix =  0.700 |ddv_scf|^2 =  9.760E-08

      iter #   3 total cpu time : 10940.1 secs   av.it.:  13.2
      thresh= 3.124E-05 alpha_mix =  0.700 |ddv_scf|^2 =  4.210E-09

      iter #   4 total cpu time : 10994.5 secs   av.it.:  12.8
      thresh= 6.489E-06 alpha_mix =  0.700 |ddv_scf|^2 =  4.974E-11

      iter #   5 total cpu time : 11050.2 secs   av.it.:  13.0
      thresh= 7.053E-07 alpha_mix =  0.700 |ddv_scf|^2 =  1.651E-12

      iter #   6 total cpu time : 11104.9 secs   av.it.:  12.7
      thresh= 1.285E-07 alpha_mix =  0.700 |ddv_scf|^2 =  8.958E-14

      iter #   7 total cpu time : 11160.5 secs   av.it.:  12.8
      thresh= 2.993E-08 alpha_mix =  0.700 |ddv_scf|^2 =  6.680E-15

     End of self-consistent calculation

     Convergence has been achieved 
 
     Number of q in the star =    1
     List of q in the star:
          1   0.000000000   0.000000000   0.000000000

          Dielectric constant in cartesian axis 

          (       4.877344481       0.000000006       0.000000000 )
          (       0.000000006       4.877344481       0.000000000 )
          (       0.000000000       0.000000000       5.112233002 )

          Effective charges (d Force / dE) in cartesian axis

           atom      1   Sn 
      Ex  (        4.18403        0.56202        0.00000 )
      Ey  (        0.56202        4.18403        0.00000 )
      Ez  (        0.00000        0.00000        4.59590 )
           atom      2   Sn 
      Ex  (        4.18403       -0.56202       -0.00000 )
      Ey  (       -0.56202        4.18403        0.00000 )
      Ez  (        0.00000        0.00000        4.59590 )
           atom      3   O  
      Ex  (       -2.09221        0.80048        0.00000 )
      Ey  (        0.80047       -2.09217        0.00000 )
      Ez  (        0.00000        0.00000       -2.29902 )
           atom      4   O  
      Ex  (       -2.09217        0.80047        0.00000 )
      Ey  (        0.80048       -2.09221        0.00000 )
      Ez  (        0.00000        0.00000       -2.29902 )
           atom      5   O  
      Ex  (       -2.09218       -0.80047        0.00000 )
      Ey  (       -0.80047       -2.09218        0.00000 )
      Ez  (        0.00000        0.00000       -2.29902 )
           atom      6   O  
      Ex  (       -2.09220       -0.80048        0.00000 )
      Ey  (       -0.80048       -2.09220       -0.00000 )
      Ez  (        0.00000        0.00000       -2.29902 )

          Effective charges (d P / du) in cartesian axis 

           atom      1   Sn 
      Px  (        4.18385        0.56252        0.00000 )
      Py  (        0.56252        4.18385        0.00000 )
      Pz  (        0.00000        0.00000        4.59606 )
           atom      2   Sn 
      Px  (        4.18386       -0.56252        0.00000 )
      Py  (       -0.56252        4.18386        0.00000 )
      Pz  (        0.00000       -0.00000        4.59606 )
           atom      3   O  
      Px  (       -2.09216        0.80049       -0.00000 )
      Py  (        0.80045       -2.09225        0.00000 )
      Pz  (       -0.00000        0.00000       -2.29871 )
           atom      4   O  
      Px  (       -2.09225        0.80045        0.00000 )
      Py  (        0.80049       -2.09216        0.00000 )
      Pz  (        0.00000        0.00000       -2.29871 )
           atom      5   O  
      Px  (       -2.09209       -0.80061        0.00000 )
      Py  (       -0.80061       -2.09209        0.00000 )
      Pz  (        0.00000        0.00000       -2.29872 )
           atom      6   O  
      Px  (       -2.09208       -0.80059        0.00000 )
      Py  (       -0.80059       -2.09208        0.00000 )
      Pz  (        0.00000        0.00000       -2.29872 )

     Diagonalizing the dynamical matrix

     q = (    0.000000000   0.000000000   0.000000000 ) 

 **************************************************************************
     freq (    1) =      -0.654493 [THz] =     -21.831533 [cm-1]
     freq (    2) =      -0.566103 [THz] =     -18.883163 [cm-1]
     freq (    3) =       0.727115 [THz] =      24.253951 [cm-1]
     freq (    4) =       2.971172 [THz] =      99.107641 [cm-1]
     freq (    5) =       4.238269 [THz] =     141.373426 [cm-1]
     freq (    6) =       6.413167 [THz] =     213.920209 [cm-1]
     freq (    7) =       6.414491 [THz] =     213.964378 [cm-1]
     freq (    8) =       7.794593 [THz] =     259.999646 [cm-1]
     freq (    9) =       7.797351 [THz] =     260.091648 [cm-1]
     freq (   10) =      10.042740 [THz] =     334.989759 [cm-1]
     freq (   11) =      13.091126 [THz] =     436.672968 [cm-1]
     freq (   12) =      13.288924 [THz] =     443.270799 [cm-1]
     freq (   13) =      13.301315 [THz] =     443.684115 [cm-1]
     freq (   14) =      15.970516 [THz] =     532.719081 [cm-1]
     freq (   15) =      16.441450 [THz] =     548.427731 [cm-1]
     freq (   16) =      16.441786 [THz] =     548.438936 [cm-1]
     freq (   17) =      17.498691 [THz] =     583.693501 [cm-1]
     freq (   18) =      21.132721 [THz] =     704.911691 [cm-1]
 **************************************************************************

     Mode symmetry, C_2v (mm2)  point group:

     freq (  1 -  1) =        -21.8  [cm-1]   --> A_1  D_1  S_1   I+R
     freq (  2 -  2) =        -18.9  [cm-1]   --> B_1  D_3  S_3   I+R
     freq (  3 -  3) =         24.3  [cm-1]   --> B_2  D_4  S_4   I+R
     freq (  4 -  4) =         99.1  [cm-1]   --> B_1  D_3  S_3   I+R
     freq (  5 -  5) =        141.4  [cm-1]   --> B_2  D_4  S_4   I+R
     freq (  6 -  6) =        213.9  [cm-1]   --> A_1  D_1  S_1   I+R
     freq (  7 -  7) =        214.0  [cm-1]   --> B_1  D_3  S_3   I+R
     freq (  8 -  8) =        260.0  [cm-1]   --> B_1  D_3  S_3   I+R
     freq (  9 -  9) =        260.1  [cm-1]   --> A_1  D_1  S_1   I+R
     freq ( 10 - 10) =        335.0  [cm-1]   --> B_1  D_3  S_3   I+R
     freq ( 11 - 11) =        436.7  [cm-1]   --> B_2  D_4  S_4   I+R
     freq ( 12 - 12) =        443.3  [cm-1]   --> A_2  D_2  S_2   R  
     freq ( 13 - 13) =        443.7  [cm-1]   --> B_2  D_4  S_4   I+R
     freq ( 14 - 14) =        532.7  [cm-1]   --> B_2  D_4  S_4   I+R
     freq ( 15 - 15) =        548.4  [cm-1]   --> A_1  D_1  S_1   I+R
     freq ( 16 - 16) =        548.4  [cm-1]   --> B_1  D_3  S_3   I+R
     freq ( 17 - 17) =        583.7  [cm-1]   --> A_1  D_1  S_1   I+R
     freq ( 18 - 18) =        704.9  [cm-1]   --> A_1  D_1  S_1   I+R
 
     PHONON       :     2h54m CPU        3h 6m WALL

     INITIALIZATION: 
     phq_setup    :      0.05s CPU      0.05s WALL (       1 calls)
     phq_init     :      3.13s CPU      3.18s WALL (       1 calls)
 
     phq_init     :      3.13s CPU      3.18s WALL (       1 calls)
     set_drhoc    :      0.56s CPU      0.56s WALL (       3 calls)
     init_vloc    :      0.03s CPU      0.03s WALL (       1 calls)
     init_us_1    :      0.01s CPU      0.01s WALL (       1 calls)
 
     DIELECTRIC CONSTANT AND EFFECTIVE CHARGES:
     solve_e      :   1792.36s CPU   1947.17s WALL (       1 calls)
     dielec       :      0.50s CPU      7.59s WALL (       1 calls)
     zstar_eu     :     79.39s CPU     81.77s WALL (       1 calls)
 
     DYNAMICAL MATRIX:
     dynmat0      :      2.03s CPU      2.06s WALL (       1 calls)
     phqscf       :   8606.61s CPU   9114.19s WALL (       1 calls)
     dynmatrix    :      0.02s CPU      0.06s WALL (       1 calls)
 
     phqscf       :   8606.61s CPU   9114.19s WALL (       1 calls)
     solve_linter :   8586.30s CPU   9089.80s WALL (      18 calls)
     drhodv       :     16.17s CPU     17.40s WALL (      18 calls)
     add_zstar_ue :      2.18s CPU      3.75s WALL (      18 calls)
 
     dynmat0      :      2.03s CPU      2.06s WALL (       1 calls)
     dynmat_us    :      1.61s CPU      1.63s WALL (       1 calls)
     d2ionq       :      0.02s CPU      0.02s WALL (       1 calls)
     dynmatcc     :      0.40s CPU      0.40s WALL (       1 calls)
 
     dynmat_us    :      1.61s CPU      1.63s WALL (       1 calls)
 
     phqscf       :   8606.61s CPU   9114.19s WALL (       1 calls)
     solve_linter :   8586.30s CPU   9089.80s WALL (      18 calls)
 
     solve_linter :   8586.30s CPU   9089.80s WALL (      18 calls)
     dvqpsi_us    :    177.98s CPU    190.65s WALL (    3780 calls)
     ortho        :     30.83s CPU     31.67s WALL (   18585 calls)
     cgsolve      :   8796.30s CPU   9078.31s WALL (   18585 calls)
     incdrhoscf   :    864.66s CPU    909.99s WALL (   18270 calls)
     vpsifft      :    466.23s CPU    499.44s WALL (   13860 calls)
     dv_of_drho   :      2.88s CPU      3.20s WALL (     174 calls)
     mix_pot      :      5.39s CPU     29.25s WALL (     158 calls)
     psymdvscf    :      4.25s CPU      4.34s WALL (     150 calls)
 
     dvqpsi_us    :    177.98s CPU    190.65s WALL (    3780 calls)
     dvqpsi_us_on :     14.15s CPU     14.19s WALL (    3780 calls)
 
     cgsolve      :   8796.30s CPU   9078.31s WALL (   18585 calls)
     ch_psi       :   8637.85s CPU   8911.83s WALL (  348271 calls)
 
     ch_psi       :   8637.85s CPU   8911.83s WALL (  348271 calls)
     h_psi        :   7835.76s CPU   8093.45s WALL (  348271 calls)
     last         :    764.22s CPU    783.01s WALL (  348271 calls)
 
     h_psi        :   7835.76s CPU   8093.45s WALL (  348271 calls)
     add_vuspsi   :    383.51s CPU    385.47s WALL (  348271 calls)
 
     incdrhoscf   :    864.66s CPU    909.99s WALL (   18270 calls)
 
 
      General routines
     calbec       :    888.84s CPU    913.03s WALL (  705467 calls)
     fft          :     21.14s CPU     22.87s WALL (   21474 calls)
     ffts         :      4.21s CPU      4.59s WALL (    4104 calls)
     fftw         :   8000.88s CPU   8341.39s WALL (14466602 calls)
     davcio       :      3.82s CPU    247.74s WALL (   92915 calls)
     write_rec    :      3.08s CPU     19.77s WALL (     176 calls)
 
 
     PHONON       :     2h54m CPU        3h 6m WALL

 
   This run was terminated on:   4:30:29  29Apr2018            

=------------------------------------------------------------------------------=
   JOB DONE.
=------------------------------------------------------------------------------=
