
     Program PHONON v.6.2.2 starts on 29Apr2018 at 11:33:11 

     This program is part of the open-source Quantum ESPRESSO suite
     for quantum simulation of materials; please cite
         "P. Giannozzi et al., J. Phys.:Condens. Matter 21 395502 (2009);
         "P. Giannozzi et al., J. Phys.:Condens. Matter 29 465901 (2017);
          URL http://www.quantum-espresso.org", 
     in publications or presentations arising from this work. More details at
     http://www.quantum-espresso.org/quote

     Parallel version (MPI), running on     4 processors

     MPI processes distributed on     1 nodes
     R & G space division:  proc/nbgrp/npool/nimage =       4

     Reading data from directory:
     ./101010.save/

     IMPORTANT: XC functional enforced from input :
     Exchange-correlation      = PBE ( 1  4  3  4 0 0)
     Any further DFT definition will be discarded
     Please, verify this is what you really want

 
     Parallelization info
     --------------------
     sticks:   dense  smooth     PW     G-vecs:    dense   smooth      PW
     Min         500     500    147                11236    11236    1788
     Max         501     501    149                11237    11237    1789
     Sum        2001    2001    593                44945    44945    7155
 

     Check: negative/imaginary core charge=   -0.000002    0.000000


     Dynamical matrices for ( 1, 1, 1)  uniform grid of q-points
     (   1 q-points):
       N         xq(1)         xq(2)         xq(3) 
       1   0.000000000   0.000000000   0.000000000

     Calculation of q =    0.0000000   0.0000000   0.0000000

     Phonon dispersions for SnO2                                                

     bravais-lattice index     =            6
     lattice parameter (alat)  =       9.1370  a.u.
     unit-cell volume          =     512.3005 (a.u.)^3
     number of atoms/cell      =            6
     number of atomic types    =            2
     kinetic-energy cut-off    =      75.0000  Ry
     charge density cut-off    =     300.0000  Ry
     convergence threshold     =      1.0E-14
     beta                      =       0.7000
     number of iterations used =            4
     Exchange-correlation      = PBE ( 1  4  3  4 0 0)


     celldm(1)=    9.13703  celldm(2)=    1.00000  celldm(3)=    0.67160
     celldm(4)=    0.00000  celldm(5)=    0.00000  celldm(6)=    0.00000

     crystal axes: (cart. coord. in units of alat)
               a(1) = (  1.0000  0.0000  0.0000 )  
               a(2) = (  0.0000  1.0000  0.0000 )  
               a(3) = (  0.0000  0.0000  0.6716 )  

     reciprocal axes: (cart. coord. in units 2 pi/alat)
               b(1) = (  1.0000  0.0000  0.0000 )  
               b(2) = (  0.0000  1.0000  0.0000 )  
               b(3) = (  0.0000  0.0000  1.4890 )  


     Atoms inside the unit cell: 

     Cartesian axes

     site n.  atom      mass           positions (alat units)
        1     Sn 118.7100   tau(    1) = (   -0.00033   -0.00033    0.00000  )
        2     Sn 118.7100   tau(    2) = (    0.49967    0.49967    0.33580  )
        3     O   15.9990   tau(    3) = (    0.80637    0.19296    0.33580  )
        4     O   15.9990   tau(    4) = (    0.19296    0.80637    0.33580  )
        5     O   15.9990   tau(    5) = (    0.30637    0.30637    0.00000  )
        6     O   15.9990   tau(    6) = (    0.69296    0.69296    0.00000  )

     Computing dynamical matrix for 
                    q = (   0.0000000   0.0000000   0.0000000 )
 
      5 Sym.Ops. (with q -> -q+G )


     G cutoff =  634.4127  (  11237 G-vectors)     FFT grid: ( 54, 54, 36)
     number of k points=   186

     PseudoPot. # 1 for Sn read from file:
     ../../../Pseudo_potentials/Sn_PBE.upf
     MD5 check sum: 78e6386ae56e929f0568ae8bf606a80c
     Pseudo is Norm-conserving + core correction, Zval = 14.0
     Generated using ONCVPSP code by D. R. Hamann
     Using radial grid of 1628 points,  6 beta functions with: 
                l(1) =   0
                l(2) =   0
                l(3) =   1
                l(4) =   1
                l(5) =   2
                l(6) =   2

     PseudoPot. # 2 for O  read from file:
     ../../../Pseudo_potentials/O_PBE.upf
     MD5 check sum: 3e3f909f7470e8921608ab6b1f57bbae
     Pseudo is Norm-conserving + core correction, Zval =  6.0
     Generated using ONCVPSP code by D. R. Hamann
     Using radial grid of  936 points,  5 beta functions with: 
                l(1) =   0
                l(2) =   0
                l(3) =   1
                l(4) =   1
                l(5) =   2

     Mode symmetry, C_2v (mm2)  point group:


     Electric field:
     Dielectric constant
     Born effective charges in two ways 


     Atomic displacements:
     There are  18 irreducible representations

     Representation     1      1 modes -A_1  D_1  S_1  To be done

     Representation     2      1 modes -A_1  D_1  S_1  To be done

     Representation     3      1 modes -A_1  D_1  S_1  To be done

     Representation     4      1 modes -A_1  D_1  S_1  To be done

     Representation     5      1 modes -A_1  D_1  S_1  To be done

     Representation     6      1 modes -A_1  D_1  S_1  To be done

     Representation     7      1 modes -A_2  D_2  S_2  To be done

     Representation     8      1 modes -B_1  D_3  S_3  To be done

     Representation     9      1 modes -B_1  D_3  S_3  To be done

     Representation    10      1 modes -B_1  D_3  S_3  To be done

     Representation    11      1 modes -B_1  D_3  S_3  To be done

     Representation    12      1 modes -B_1  D_3  S_3  To be done

     Representation    13      1 modes -B_1  D_3  S_3  To be done

     Representation    14      1 modes -B_2  D_4  S_4  To be done

     Representation    15      1 modes -B_2  D_4  S_4  To be done

     Representation    16      1 modes -B_2  D_4  S_4  To be done

     Representation    17      1 modes -B_2  D_4  S_4  To be done

     Representation    18      1 modes -B_2  D_4  S_4  To be done



     Alpha used in Ewald sum =   2.7000
     PHONON       :     7.03s CPU        23.27s WALL


     Electric Fields Calculation

      iter #   1 total cpu time :   799.2 secs   av.it.:   7.6
      thresh= 1.000E-02 alpha_mix =  0.700 |ddv_scf|^2 =  4.944E-08

      iter #   2 total cpu time :  1147.4 secs   av.it.:  14.4
      thresh= 2.224E-05 alpha_mix =  0.700 |ddv_scf|^2 =  7.706E-08

      iter #   3 total cpu time :  1447.8 secs   av.it.:  12.5
      thresh= 2.776E-05 alpha_mix =  0.700 |ddv_scf|^2 =  4.106E-09

      iter #   4 total cpu time :  1762.2 secs   av.it.:  13.7
      thresh= 6.407E-06 alpha_mix =  0.700 |ddv_scf|^2 =  1.748E-10

      iter #   5 total cpu time :  2361.4 secs   av.it.:  13.9
      thresh= 1.322E-06 alpha_mix =  0.700 |ddv_scf|^2 =  1.744E-11

      iter #   6 total cpu time :  2672.8 secs   av.it.:  13.4
      thresh= 4.177E-07 alpha_mix =  0.700 |ddv_scf|^2 =  1.632E-13

      iter #   7 total cpu time :  3006.3 secs   av.it.:  14.8
      thresh= 4.040E-08 alpha_mix =  0.700 |ddv_scf|^2 =  5.228E-14

      iter #   8 total cpu time :  3320.4 secs   av.it.:  13.9
      thresh= 2.287E-08 alpha_mix =  0.700 |ddv_scf|^2 =  4.999E-16

     End of electric fields calculation

          Dielectric constant in cartesian axis 

          (       4.851334434       0.000000005       0.000000000 )
          (       0.000000005       4.851334434       0.000000000 )
          (       0.000000000       0.000000000       5.106822148 )

          Effective charges (d Force / dE) in cartesian axis

           atom      1   Sn 
      Ex  (        4.18460        0.56166        0.00000 )
      Ey  (        0.56166        4.18460        0.00000 )
      Ez  (        0.00000        0.00000        4.59625 )
           atom      2   Sn 
      Ex  (        4.18460       -0.56166        0.00000 )
      Ey  (       -0.56166        4.18460        0.00000 )
      Ez  (        0.00000        0.00000        4.59625 )
           atom      3   O  
      Ex  (       -2.09227        0.79935       -0.00000 )
      Ey  (        0.79933       -2.09223        0.00000 )
      Ez  (        0.00000        0.00000       -2.29831 )
           atom      4   O  
      Ex  (       -2.09223        0.79933        0.00000 )
      Ey  (        0.79935       -2.09227        0.00000 )
      Ez  (        0.00000        0.00000       -2.29831 )
           atom      5   O  
      Ex  (       -2.09224       -0.79933        0.00000 )
      Ey  (       -0.79933       -2.09224        0.00000 )
      Ez  (        0.00000       -0.00000       -2.29831 )
           atom      6   O  
      Ex  (       -2.09225       -0.79934        0.00000 )
      Ey  (       -0.79934       -2.09225        0.00000 )
      Ez  (        0.00000       -0.00000       -2.29831 )


     Representation #  1 mode #   1

     Self-consistent Calculation

      iter #   1 total cpu time :  3545.7 secs   av.it.:   6.8
      thresh= 1.000E-02 alpha_mix =  0.700 |ddv_scf|^2 =  2.766E-06

      iter #   2 total cpu time :  3653.2 secs   av.it.:  12.9
      thresh= 1.663E-04 alpha_mix =  0.700 |ddv_scf|^2 =  7.177E-07

      iter #   3 total cpu time :  3753.7 secs   av.it.:  12.8
      thresh= 8.472E-05 alpha_mix =  0.700 |ddv_scf|^2 =  2.418E-07

      iter #   4 total cpu time :  3849.0 secs   av.it.:  12.0
      thresh= 4.918E-05 alpha_mix =  0.700 |ddv_scf|^2 =  1.014E-08

      iter #   5 total cpu time :  3947.3 secs   av.it.:  12.7
      thresh= 1.007E-05 alpha_mix =  0.700 |ddv_scf|^2 =  7.464E-11

      iter #   6 total cpu time :  4049.6 secs   av.it.:  13.5
      thresh= 8.640E-07 alpha_mix =  0.700 |ddv_scf|^2 =  3.594E-11

      iter #   7 total cpu time :  4151.4 secs   av.it.:  12.8
      thresh= 5.995E-07 alpha_mix =  0.700 |ddv_scf|^2 =  1.602E-11

      iter #   8 total cpu time :  4245.6 secs   av.it.:  12.2
      thresh= 4.002E-07 alpha_mix =  0.700 |ddv_scf|^2 =  7.002E-13

      iter #   9 total cpu time :  4341.8 secs   av.it.:  12.7
      thresh= 8.368E-08 alpha_mix =  0.700 |ddv_scf|^2 =  2.486E-14

      iter #  10 total cpu time :  4447.2 secs   av.it.:  13.5
      thresh= 1.577E-08 alpha_mix =  0.700 |ddv_scf|^2 =  1.225E-14

      iter #  11 total cpu time :  4545.7 secs   av.it.:  12.6
      thresh= 1.107E-08 alpha_mix =  0.700 |ddv_scf|^2 =  8.778E-15

     End of self-consistent calculation

     Convergence has been achieved 


     Representation #  2 mode #   2

     Self-consistent Calculation

      iter #   1 total cpu time :  4620.8 secs   av.it.:   7.2
      thresh= 1.000E-02 alpha_mix =  0.700 |ddv_scf|^2 =  9.428E-06

      iter #   2 total cpu time :  4718.7 secs   av.it.:  12.5
      thresh= 3.070E-04 alpha_mix =  0.700 |ddv_scf|^2 =  5.684E-06

      iter #   3 total cpu time :  4812.3 secs   av.it.:  11.6
      thresh= 2.384E-04 alpha_mix =  0.700 |ddv_scf|^2 =  1.457E-07

      iter #   4 total cpu time :  4910.5 secs   av.it.:  12.3
      thresh= 3.818E-05 alpha_mix =  0.700 |ddv_scf|^2 =  5.505E-08

      iter #   5 total cpu time :  5002.6 secs   av.it.:  11.8
      thresh= 2.346E-05 alpha_mix =  0.700 |ddv_scf|^2 =  8.366E-11

      iter #   6 total cpu time :  5101.6 secs   av.it.:  13.1
      thresh= 9.147E-07 alpha_mix =  0.700 |ddv_scf|^2 =  1.304E-11

      iter #   7 total cpu time :  5202.6 secs   av.it.:  13.2
      thresh= 3.611E-07 alpha_mix =  0.700 |ddv_scf|^2 =  1.542E-11

      iter #   8 total cpu time :  5297.6 secs   av.it.:  12.2
      thresh= 3.927E-07 alpha_mix =  0.700 |ddv_scf|^2 =  2.063E-13

      iter #   9 total cpu time :  5399.2 secs   av.it.:  13.3
      thresh= 4.542E-08 alpha_mix =  0.700 |ddv_scf|^2 =  3.494E-14

      iter #  10 total cpu time :  5497.2 secs   av.it.:  13.0
      thresh= 1.869E-08 alpha_mix =  0.700 |ddv_scf|^2 =  2.096E-15

     End of self-consistent calculation

     Convergence has been achieved 


     Representation #  3 mode #   3

     Self-consistent Calculation

      iter #   1 total cpu time :  5729.3 secs   av.it.:   8.4
      thresh= 1.000E-02 alpha_mix =  0.700 |ddv_scf|^2 =  2.415E-05

      iter #   2 total cpu time :  5833.1 secs   av.it.:  13.1
      thresh= 4.914E-04 alpha_mix =  0.700 |ddv_scf|^2 =  2.357E-05

      iter #   3 total cpu time :  5929.8 secs   av.it.:  12.3
      thresh= 4.855E-04 alpha_mix =  0.700 |ddv_scf|^2 =  1.749E-06

      iter #   4 total cpu time :  6024.9 secs   av.it.:  12.2
      thresh= 1.322E-04 alpha_mix =  0.700 |ddv_scf|^2 =  2.380E-09

      iter #   5 total cpu time :  6124.6 secs   av.it.:  12.9
      thresh= 4.878E-06 alpha_mix =  0.700 |ddv_scf|^2 =  5.334E-11

      iter #   6 total cpu time :  6220.7 secs   av.it.:  12.8
      thresh= 7.303E-07 alpha_mix =  0.700 |ddv_scf|^2 =  1.739E-11

      iter #   7 total cpu time :  6317.0 secs   av.it.:  12.6
      thresh= 4.170E-07 alpha_mix =  0.700 |ddv_scf|^2 =  3.176E-13

      iter #   8 total cpu time :  6414.9 secs   av.it.:  13.2
      thresh= 5.636E-08 alpha_mix =  0.700 |ddv_scf|^2 =  1.056E-14

      iter #   9 total cpu time :  6515.7 secs   av.it.:  13.5
      thresh= 1.028E-08 alpha_mix =  0.700 |ddv_scf|^2 =  1.019E-14

      iter #  10 total cpu time :  6612.0 secs   av.it.:  12.5
      thresh= 1.009E-08 alpha_mix =  0.700 |ddv_scf|^2 =  2.709E-15

     End of self-consistent calculation

     Convergence has been achieved 


     Representation #  4 mode #   4

     Self-consistent Calculation

      iter #   1 total cpu time :  6690.0 secs   av.it.:   7.5
      thresh= 1.000E-02 alpha_mix =  0.700 |ddv_scf|^2 =  6.155E-06

      iter #   2 total cpu time :  6790.2 secs   av.it.:  13.1
      thresh= 2.481E-04 alpha_mix =  0.700 |ddv_scf|^2 =  3.430E-06

      iter #   3 total cpu time :  6886.0 secs   av.it.:  12.4
      thresh= 1.852E-04 alpha_mix =  0.700 |ddv_scf|^2 =  1.704E-07

      iter #   4 total cpu time :  6983.8 secs   av.it.:  12.7
      thresh= 4.128E-05 alpha_mix =  0.700 |ddv_scf|^2 =  3.887E-08

      iter #   5 total cpu time :  7079.0 secs   av.it.:  12.2
      thresh= 1.972E-05 alpha_mix =  0.700 |ddv_scf|^2 =  4.075E-10

      iter #   6 total cpu time :  7188.6 secs   av.it.:  13.3
      thresh= 2.019E-06 alpha_mix =  0.700 |ddv_scf|^2 =  2.840E-10

      iter #   7 total cpu time :  7284.0 secs   av.it.:  12.3
      thresh= 1.685E-06 alpha_mix =  0.700 |ddv_scf|^2 =  8.141E-12

      iter #   8 total cpu time :  7383.4 secs   av.it.:  13.3
      thresh= 2.853E-07 alpha_mix =  0.700 |ddv_scf|^2 =  1.074E-12

      iter #   9 total cpu time :  7485.2 secs   av.it.:  13.5
      thresh= 1.037E-07 alpha_mix =  0.700 |ddv_scf|^2 =  1.439E-13

      iter #  10 total cpu time :  7586.7 secs   av.it.:  12.8
      thresh= 3.794E-08 alpha_mix =  0.700 |ddv_scf|^2 =  7.241E-15

     End of self-consistent calculation

     Convergence has been achieved 


     Representation #  5 mode #   5

     Self-consistent Calculation

      iter #   1 total cpu time :  7669.4 secs   av.it.:   8.2
      thresh= 1.000E-02 alpha_mix =  0.700 |ddv_scf|^2 =  2.060E-05

      iter #   2 total cpu time :  7770.4 secs   av.it.:  13.0
      thresh= 4.539E-04 alpha_mix =  0.700 |ddv_scf|^2 =  1.771E-05

      iter #   3 total cpu time :  7867.5 secs   av.it.:  12.3
      thresh= 4.208E-04 alpha_mix =  0.700 |ddv_scf|^2 =  1.809E-06

      iter #   4 total cpu time :  7959.0 secs   av.it.:  12.1
      thresh= 1.345E-04 alpha_mix =  0.700 |ddv_scf|^2 =  2.404E-09

      iter #   5 total cpu time :  8055.0 secs   av.it.:  12.8
      thresh= 4.903E-06 alpha_mix =  0.700 |ddv_scf|^2 =  1.922E-10

      iter #   6 total cpu time :  8152.6 secs   av.it.:  12.4
      thresh= 1.386E-06 alpha_mix =  0.700 |ddv_scf|^2 =  7.475E-11

      iter #   7 total cpu time :  8248.3 secs   av.it.:  12.1
      thresh= 8.646E-07 alpha_mix =  0.700 |ddv_scf|^2 =  1.340E-12

      iter #   8 total cpu time :  8344.7 secs   av.it.:  12.3
      thresh= 1.158E-07 alpha_mix =  0.700 |ddv_scf|^2 =  1.892E-14

      iter #   9 total cpu time :  8443.7 secs   av.it.:  13.1
      thresh= 1.376E-08 alpha_mix =  0.700 |ddv_scf|^2 =  3.768E-15

     End of self-consistent calculation

     Convergence has been achieved 


     Representation #  6 mode #   6

     Self-consistent Calculation

      iter #   1 total cpu time :  8523.9 secs   av.it.:   7.5
      thresh= 1.000E-02 alpha_mix =  0.700 |ddv_scf|^2 =  6.155E-06

      iter #   2 total cpu time :  8624.9 secs   av.it.:  13.1
      thresh= 2.481E-04 alpha_mix =  0.700 |ddv_scf|^2 =  3.431E-06

      iter #   3 total cpu time :  8720.1 secs   av.it.:  12.4
      thresh= 1.852E-04 alpha_mix =  0.700 |ddv_scf|^2 =  1.704E-07

      iter #   4 total cpu time :  8816.1 secs   av.it.:  12.7
      thresh= 4.128E-05 alpha_mix =  0.700 |ddv_scf|^2 =  3.887E-08

      iter #   5 total cpu time :  8913.0 secs   av.it.:  12.2
      thresh= 1.972E-05 alpha_mix =  0.700 |ddv_scf|^2 =  4.075E-10

      iter #   6 total cpu time :  9017.1 secs   av.it.:  13.3
      thresh= 2.019E-06 alpha_mix =  0.700 |ddv_scf|^2 =  2.839E-10

      iter #   7 total cpu time :  9113.2 secs   av.it.:  12.3
      thresh= 1.685E-06 alpha_mix =  0.700 |ddv_scf|^2 =  8.141E-12

      iter #   8 total cpu time :  9213.6 secs   av.it.:  13.3
      thresh= 2.853E-07 alpha_mix =  0.700 |ddv_scf|^2 =  1.074E-12

      iter #   9 total cpu time :  9318.6 secs   av.it.:  13.5
      thresh= 1.037E-07 alpha_mix =  0.700 |ddv_scf|^2 =  1.439E-13

      iter #  10 total cpu time :  9418.4 secs   av.it.:  12.8
      thresh= 3.794E-08 alpha_mix =  0.700 |ddv_scf|^2 =  7.240E-15

     End of self-consistent calculation

     Convergence has been achieved 


     Representation #  7 mode #   7

     Self-consistent Calculation

      iter #   1 total cpu time :  9489.6 secs   av.it.:   6.6
      thresh= 1.000E-02 alpha_mix =  0.700 |ddv_scf|^2 =  1.409E-06

      iter #   2 total cpu time :  9588.1 secs   av.it.:  12.4
      thresh= 1.187E-04 alpha_mix =  0.700 |ddv_scf|^2 =  1.737E-08

      iter #   3 total cpu time :  9684.6 secs   av.it.:  12.6
      thresh= 1.318E-05 alpha_mix =  0.700 |ddv_scf|^2 =  1.996E-10

      iter #   4 total cpu time :  9782.7 secs   av.it.:  12.5
      thresh= 1.413E-06 alpha_mix =  0.700 |ddv_scf|^2 =  1.694E-12

      iter #   5 total cpu time :  9880.1 secs   av.it.:  12.5
      thresh= 1.301E-07 alpha_mix =  0.700 |ddv_scf|^2 =  9.541E-15

     End of self-consistent calculation

     Convergence has been achieved 


     Representation #  8 mode #   8

     Self-consistent Calculation

      iter #   1 total cpu time :  9957.7 secs   av.it.:   7.0
      thresh= 1.000E-02 alpha_mix =  0.700 |ddv_scf|^2 =  4.904E-06

      iter #   2 total cpu time : 10058.3 secs   av.it.:  12.6
      thresh= 2.214E-04 alpha_mix =  0.700 |ddv_scf|^2 =  6.239E-07

      iter #   3 total cpu time : 10158.7 secs   av.it.:  12.5
      thresh= 7.898E-05 alpha_mix =  0.700 |ddv_scf|^2 =  4.809E-08

      iter #   4 total cpu time : 10253.6 secs   av.it.:  12.3
      thresh= 2.193E-05 alpha_mix =  0.700 |ddv_scf|^2 =  5.824E-09

      iter #   5 total cpu time : 10351.3 secs   av.it.:  12.3
      thresh= 7.632E-06 alpha_mix =  0.700 |ddv_scf|^2 =  1.019E-10

      iter #   6 total cpu time : 10452.1 secs   av.it.:  13.3
      thresh= 1.009E-06 alpha_mix =  0.700 |ddv_scf|^2 =  9.009E-12

      iter #   7 total cpu time : 10552.2 secs   av.it.:  13.1
      thresh= 3.001E-07 alpha_mix =  0.700 |ddv_scf|^2 =  2.009E-13

      iter #   8 total cpu time : 10651.8 secs   av.it.:  12.8
      thresh= 4.482E-08 alpha_mix =  0.700 |ddv_scf|^2 =  7.610E-15

     End of self-consistent calculation

     Convergence has been achieved 


     Representation #  9 mode #   9

     Self-consistent Calculation

      iter #   1 total cpu time : 10733.8 secs   av.it.:   8.4
      thresh= 1.000E-02 alpha_mix =  0.700 |ddv_scf|^2 =  2.415E-05

      iter #   2 total cpu time : 10836.8 secs   av.it.:  13.1
      thresh= 4.914E-04 alpha_mix =  0.700 |ddv_scf|^2 =  2.357E-05

      iter #   3 total cpu time : 10932.8 secs   av.it.:  12.3
      thresh= 4.855E-04 alpha_mix =  0.700 |ddv_scf|^2 =  1.749E-06

      iter #   4 total cpu time : 11026.8 secs   av.it.:  12.1
      thresh= 1.322E-04 alpha_mix =  0.700 |ddv_scf|^2 =  2.380E-09

      iter #   5 total cpu time : 11125.6 secs   av.it.:  12.8
      thresh= 4.878E-06 alpha_mix =  0.700 |ddv_scf|^2 =  5.334E-11

      iter #   6 total cpu time : 11223.8 secs   av.it.:  12.8
      thresh= 7.303E-07 alpha_mix =  0.700 |ddv_scf|^2 =  1.739E-11

      iter #   7 total cpu time : 11324.1 secs   av.it.:  12.6
      thresh= 4.171E-07 alpha_mix =  0.700 |ddv_scf|^2 =  3.173E-13

      iter #   8 total cpu time : 11425.0 secs   av.it.:  13.0
      thresh= 5.633E-08 alpha_mix =  0.700 |ddv_scf|^2 =  8.995E-15

     End of self-consistent calculation

     Convergence has been achieved 


     Representation # 10 mode #  10

     Self-consistent Calculation

      iter #   1 total cpu time : 11501.5 secs   av.it.:   7.0
      thresh= 1.000E-02 alpha_mix =  0.700 |ddv_scf|^2 =  3.911E-06

      iter #   2 total cpu time : 11606.4 secs   av.it.:  12.9
      thresh= 1.978E-04 alpha_mix =  0.700 |ddv_scf|^2 =  6.412E-07

      iter #   3 total cpu time : 11708.0 secs   av.it.:  12.8
      thresh= 8.008E-05 alpha_mix =  0.700 |ddv_scf|^2 =  1.595E-07

      iter #   4 total cpu time : 11801.5 secs   av.it.:  12.1
      thresh= 3.994E-05 alpha_mix =  0.700 |ddv_scf|^2 =  6.002E-09

      iter #   5 total cpu time : 11898.1 secs   av.it.:  12.7
      thresh= 7.747E-06 alpha_mix =  0.700 |ddv_scf|^2 =  1.503E-10

      iter #   6 total cpu time : 12000.1 secs   av.it.:  13.2
      thresh= 1.226E-06 alpha_mix =  0.700 |ddv_scf|^2 =  1.023E-11

      iter #   7 total cpu time : 12100.0 secs   av.it.:  12.7
      thresh= 3.199E-07 alpha_mix =  0.700 |ddv_scf|^2 =  4.047E-13

      iter #   8 total cpu time : 12198.5 secs   av.it.:  12.8
      thresh= 6.362E-08 alpha_mix =  0.700 |ddv_scf|^2 =  6.441E-15

     End of self-consistent calculation

     Convergence has been achieved 


     Representation # 11 mode #  11

     Self-consistent Calculation

      iter #   1 total cpu time : 12273.5 secs   av.it.:   7.4
      thresh= 1.000E-02 alpha_mix =  0.700 |ddv_scf|^2 =  3.040E-06

      iter #   2 total cpu time : 12376.6 secs   av.it.:  13.3
      thresh= 1.743E-04 alpha_mix =  0.700 |ddv_scf|^2 =  1.131E-06

      iter #   3 total cpu time : 12473.5 secs   av.it.:  12.7
      thresh= 1.064E-04 alpha_mix =  0.700 |ddv_scf|^2 =  2.737E-07

      iter #   4 total cpu time : 12567.2 secs   av.it.:  11.9
      thresh= 5.232E-05 alpha_mix =  0.700 |ddv_scf|^2 =  6.925E-09

      iter #   5 total cpu time : 12664.9 secs   av.it.:  12.8
      thresh= 8.322E-06 alpha_mix =  0.700 |ddv_scf|^2 =  6.294E-11

      iter #   6 total cpu time : 12767.5 secs   av.it.:  13.4
      thresh= 7.933E-07 alpha_mix =  0.700 |ddv_scf|^2 =  9.209E-12

      iter #   7 total cpu time : 12869.3 secs   av.it.:  13.1
      thresh= 3.035E-07 alpha_mix =  0.700 |ddv_scf|^2 =  6.202E-13

      iter #   8 total cpu time : 12970.8 secs   av.it.:  12.9
      thresh= 7.875E-08 alpha_mix =  0.700 |ddv_scf|^2 =  1.375E-14

      iter #   9 total cpu time : 13074.6 secs   av.it.:  13.6
      thresh= 1.173E-08 alpha_mix =  0.700 |ddv_scf|^2 =  2.127E-15

     End of self-consistent calculation

     Convergence has been achieved 


     Representation # 12 mode #  12

     Self-consistent Calculation

      iter #   1 total cpu time : 13144.5 secs   av.it.:   7.0
      thresh= 1.000E-02 alpha_mix =  0.700 |ddv_scf|^2 =  3.911E-06

      iter #   2 total cpu time : 13248.1 secs   av.it.:  12.9
      thresh= 1.978E-04 alpha_mix =  0.700 |ddv_scf|^2 =  6.412E-07

      iter #   3 total cpu time : 13347.4 secs   av.it.:  12.8
      thresh= 8.008E-05 alpha_mix =  0.700 |ddv_scf|^2 =  1.595E-07

      iter #   4 total cpu time : 13442.6 secs   av.it.:  12.1
      thresh= 3.994E-05 alpha_mix =  0.700 |ddv_scf|^2 =  6.002E-09

      iter #   5 total cpu time : 13542.0 secs   av.it.:  12.7
      thresh= 7.747E-06 alpha_mix =  0.700 |ddv_scf|^2 =  1.503E-10

      iter #   6 total cpu time : 13642.8 secs   av.it.:  13.2
      thresh= 1.226E-06 alpha_mix =  0.700 |ddv_scf|^2 =  1.023E-11

      iter #   7 total cpu time : 13742.1 secs   av.it.:  12.7
      thresh= 3.199E-07 alpha_mix =  0.700 |ddv_scf|^2 =  4.047E-13

      iter #   8 total cpu time : 13840.2 secs   av.it.:  12.8
      thresh= 6.362E-08 alpha_mix =  0.700 |ddv_scf|^2 =  6.441E-15

     End of self-consistent calculation

     Convergence has been achieved 


     Representation # 13 mode #  13

     Self-consistent Calculation

      iter #   1 total cpu time : 13919.5 secs   av.it.:   8.2
      thresh= 1.000E-02 alpha_mix =  0.700 |ddv_scf|^2 =  2.060E-05

      iter #   2 total cpu time : 14020.9 secs   av.it.:  13.0
      thresh= 4.539E-04 alpha_mix =  0.700 |ddv_scf|^2 =  1.771E-05

      iter #   3 total cpu time : 14114.2 secs   av.it.:  12.3
      thresh= 4.208E-04 alpha_mix =  0.700 |ddv_scf|^2 =  1.809E-06

      iter #   4 total cpu time : 14208.6 secs   av.it.:  12.1
      thresh= 1.345E-04 alpha_mix =  0.700 |ddv_scf|^2 =  2.404E-09

      iter #   5 total cpu time : 14306.6 secs   av.it.:  12.8
      thresh= 4.903E-06 alpha_mix =  0.700 |ddv_scf|^2 =  1.922E-10

      iter #   6 total cpu time : 14402.4 secs   av.it.:  12.4
      thresh= 1.386E-06 alpha_mix =  0.700 |ddv_scf|^2 =  7.475E-11

      iter #   7 total cpu time : 14499.2 secs   av.it.:  12.1
      thresh= 8.646E-07 alpha_mix =  0.700 |ddv_scf|^2 =  1.340E-12

      iter #   8 total cpu time : 14593.4 secs   av.it.:  12.3
      thresh= 1.158E-07 alpha_mix =  0.700 |ddv_scf|^2 =  1.857E-14

      iter #   9 total cpu time : 14691.7 secs   av.it.:  12.7
      thresh= 1.363E-08 alpha_mix =  0.700 |ddv_scf|^2 =  2.942E-16

     End of self-consistent calculation

     Convergence has been achieved 


     Representation # 14 mode #  14

     Self-consistent Calculation

      iter #   1 total cpu time : 14867.4 secs   av.it.:   7.8
      thresh= 1.000E-02 alpha_mix =  0.700 |ddv_scf|^2 =  7.083E-06

      iter #   2 total cpu time : 14970.3 secs   av.it.:  13.0
      thresh= 2.661E-04 alpha_mix =  0.700 |ddv_scf|^2 =  1.332E-06

      iter #   3 total cpu time : 15069.3 secs   av.it.:  12.5
      thresh= 1.154E-04 alpha_mix =  0.700 |ddv_scf|^2 =  4.069E-09

      iter #   4 total cpu time : 15167.0 secs   av.it.:  12.7
      thresh= 6.379E-06 alpha_mix =  0.700 |ddv_scf|^2 =  3.079E-10

      iter #   5 total cpu time : 15261.9 secs   av.it.:  12.7
      thresh= 1.755E-06 alpha_mix =  0.700 |ddv_scf|^2 =  6.371E-12

      iter #   6 total cpu time : 15358.5 secs   av.it.:  12.5
      thresh= 2.524E-07 alpha_mix =  0.700 |ddv_scf|^2 =  1.211E-13

      iter #   7 total cpu time : 15456.5 secs   av.it.:  12.8
      thresh= 3.480E-08 alpha_mix =  0.700 |ddv_scf|^2 =  4.652E-15

     End of self-consistent calculation

     Convergence has been achieved 


     Representation # 15 mode #  15

     Self-consistent Calculation

      iter #   1 total cpu time : 15530.7 secs   av.it.:   7.0
      thresh= 1.000E-02 alpha_mix =  0.700 |ddv_scf|^2 =  2.044E-06

      iter #   2 total cpu time : 15629.4 secs   av.it.:  13.0
      thresh= 1.430E-04 alpha_mix =  0.700 |ddv_scf|^2 =  1.778E-07

      iter #   3 total cpu time : 15726.9 secs   av.it.:  12.9
      thresh= 4.216E-05 alpha_mix =  0.700 |ddv_scf|^2 =  4.438E-09

      iter #   4 total cpu time : 15822.0 secs   av.it.:  12.7
      thresh= 6.662E-06 alpha_mix =  0.700 |ddv_scf|^2 =  5.012E-11

      iter #   5 total cpu time : 15921.5 secs   av.it.:  12.9
      thresh= 7.080E-07 alpha_mix =  0.700 |ddv_scf|^2 =  2.815E-12

      iter #   6 total cpu time : 16018.7 secs   av.it.:  12.5
      thresh= 1.678E-07 alpha_mix =  0.700 |ddv_scf|^2 =  8.853E-14

      iter #   7 total cpu time : 16113.9 secs   av.it.:  12.3
      thresh= 2.975E-08 alpha_mix =  0.700 |ddv_scf|^2 =  7.148E-15

     End of self-consistent calculation

     Convergence has been achieved 


     Representation # 16 mode #  16

     Self-consistent Calculation

      iter #   1 total cpu time : 16190.0 secs   av.it.:   7.0
      thresh= 1.000E-02 alpha_mix =  0.700 |ddv_scf|^2 =  1.727E-06

      iter #   2 total cpu time : 16292.1 secs   av.it.:  13.2
      thresh= 1.314E-04 alpha_mix =  0.700 |ddv_scf|^2 =  9.760E-08

      iter #   3 total cpu time : 16394.4 secs   av.it.:  13.3
      thresh= 3.124E-05 alpha_mix =  0.700 |ddv_scf|^2 =  4.211E-09

      iter #   4 total cpu time : 16491.7 secs   av.it.:  12.9
      thresh= 6.489E-06 alpha_mix =  0.700 |ddv_scf|^2 =  4.973E-11

      iter #   5 total cpu time : 16590.8 secs   av.it.:  13.1
      thresh= 7.052E-07 alpha_mix =  0.700 |ddv_scf|^2 =  1.651E-12

      iter #   6 total cpu time : 16688.2 secs   av.it.:  12.8
      thresh= 1.285E-07 alpha_mix =  0.700 |ddv_scf|^2 =  8.955E-14

      iter #   7 total cpu time : 16791.9 secs   av.it.:  12.9
      thresh= 2.992E-08 alpha_mix =  0.700 |ddv_scf|^2 =  6.677E-15

     End of self-consistent calculation

     Convergence has been achieved 


     Representation # 17 mode #  17

     Self-consistent Calculation

      iter #   1 total cpu time : 16869.4 secs   av.it.:   7.8
      thresh= 1.000E-02 alpha_mix =  0.700 |ddv_scf|^2 =  7.083E-06

      iter #   2 total cpu time : 17067.4 secs   av.it.:  13.0
      thresh= 2.661E-04 alpha_mix =  0.700 |ddv_scf|^2 =  1.332E-06

      iter #   3 total cpu time : 17164.0 secs   av.it.:  12.5
      thresh= 1.154E-04 alpha_mix =  0.700 |ddv_scf|^2 =  4.069E-09

      iter #   4 total cpu time : 17262.3 secs   av.it.:  12.7
      thresh= 6.379E-06 alpha_mix =  0.700 |ddv_scf|^2 =  3.079E-10

      iter #   5 total cpu time : 17358.9 secs   av.it.:  12.7
      thresh= 1.755E-06 alpha_mix =  0.700 |ddv_scf|^2 =  6.371E-12

      iter #   6 total cpu time : 17454.6 secs   av.it.:  12.5
      thresh= 2.524E-07 alpha_mix =  0.700 |ddv_scf|^2 =  1.211E-13

      iter #   7 total cpu time : 17551.9 secs   av.it.:  12.8
      thresh= 3.480E-08 alpha_mix =  0.700 |ddv_scf|^2 =  4.652E-15

     End of self-consistent calculation

     Convergence has been achieved 


     Representation # 18 mode #  18

     Self-consistent Calculation

      iter #   1 total cpu time : 17627.4 secs   av.it.:   7.0
      thresh= 1.000E-02 alpha_mix =  0.700 |ddv_scf|^2 =  1.727E-06

      iter #   2 total cpu time : 17727.9 secs   av.it.:  13.2
      thresh= 1.314E-04 alpha_mix =  0.700 |ddv_scf|^2 =  9.760E-08

      iter #   3 total cpu time : 17827.3 secs   av.it.:  13.3
      thresh= 3.124E-05 alpha_mix =  0.700 |ddv_scf|^2 =  4.211E-09

      iter #   4 total cpu time : 17924.9 secs   av.it.:  12.9
      thresh= 6.489E-06 alpha_mix =  0.700 |ddv_scf|^2 =  4.973E-11

      iter #   5 total cpu time : 18024.6 secs   av.it.:  13.1
      thresh= 7.052E-07 alpha_mix =  0.700 |ddv_scf|^2 =  1.651E-12

      iter #   6 total cpu time : 18126.5 secs   av.it.:  12.8
      thresh= 1.285E-07 alpha_mix =  0.700 |ddv_scf|^2 =  8.955E-14

      iter #   7 total cpu time : 18226.0 secs   av.it.:  12.9
      thresh= 2.992E-08 alpha_mix =  0.700 |ddv_scf|^2 =  6.677E-15

     End of self-consistent calculation

     Convergence has been achieved 
 
     Number of q in the star =    1
     List of q in the star:
          1   0.000000000   0.000000000   0.000000000

          Dielectric constant in cartesian axis 

          (       4.851334434       0.000000005       0.000000000 )
          (       0.000000005       4.851334434       0.000000000 )
          (       0.000000000       0.000000000       5.106822148 )

          Effective charges (d Force / dE) in cartesian axis

           atom      1   Sn 
      Ex  (        4.18460        0.56166        0.00000 )
      Ey  (        0.56166        4.18460        0.00000 )
      Ez  (        0.00000        0.00000        4.59625 )
           atom      2   Sn 
      Ex  (        4.18460       -0.56166        0.00000 )
      Ey  (       -0.56166        4.18460        0.00000 )
      Ez  (        0.00000        0.00000        4.59625 )
           atom      3   O  
      Ex  (       -2.09227        0.79935       -0.00000 )
      Ey  (        0.79933       -2.09223        0.00000 )
      Ez  (        0.00000        0.00000       -2.29831 )
           atom      4   O  
      Ex  (       -2.09223        0.79933        0.00000 )
      Ey  (        0.79935       -2.09227        0.00000 )
      Ez  (        0.00000        0.00000       -2.29831 )
           atom      5   O  
      Ex  (       -2.09224       -0.79933        0.00000 )
      Ey  (       -0.79933       -2.09224        0.00000 )
      Ez  (        0.00000       -0.00000       -2.29831 )
           atom      6   O  
      Ex  (       -2.09225       -0.79934        0.00000 )
      Ey  (       -0.79934       -2.09225        0.00000 )
      Ez  (        0.00000       -0.00000       -2.29831 )

          Effective charges (d P / du) in cartesian axis 

           atom      1   Sn 
      Px  (        4.18441        0.56216       -0.00000 )
      Py  (        0.56216        4.18441        0.00000 )
      Pz  (        0.00000        0.00000        4.59641 )
           atom      2   Sn 
      Px  (        4.18442       -0.56216        0.00000 )
      Py  (       -0.56216        4.18442        0.00000 )
      Pz  (        0.00000        0.00000        4.59641 )
           atom      3   O  
      Px  (       -2.09221        0.79935        0.00000 )
      Py  (        0.79932       -2.09231        0.00000 )
      Pz  (        0.00000        0.00000       -2.29799 )
           atom      4   O  
      Px  (       -2.09231        0.79932        0.00000 )
      Py  (        0.79935       -2.09221        0.00000 )
      Pz  (        0.00000        0.00000       -2.29799 )
           atom      5   O  
      Px  (       -2.09215       -0.79947        0.00000 )
      Py  (       -0.79947       -2.09215        0.00000 )
      Pz  (        0.00000        0.00000       -2.29800 )
           atom      6   O  
      Px  (       -2.09214       -0.79946        0.00000 )
      Py  (       -0.79946       -2.09214        0.00000 )
      Pz  (        0.00000        0.00000       -2.29800 )

     Diagonalizing the dynamical matrix

     q = (    0.000000000   0.000000000   0.000000000 ) 

 **************************************************************************
     freq (    1) =      -0.655073 [THz] =     -21.850892 [cm-1]
     freq (    2) =      -0.566051 [THz] =     -18.881413 [cm-1]
     freq (    3) =       0.727168 [THz] =      24.255719 [cm-1]
     freq (    4) =       2.975476 [THz] =      99.251206 [cm-1]
     freq (    5) =       4.238259 [THz] =     141.373113 [cm-1]
     freq (    6) =       6.413493 [THz] =     213.931113 [cm-1]
     freq (    7) =       6.414768 [THz] =     213.973622 [cm-1]
     freq (    8) =       7.794514 [THz] =     259.997008 [cm-1]
     freq (    9) =       7.797002 [THz] =     260.079981 [cm-1]
     freq (   10) =      10.042398 [THz] =     334.978346 [cm-1]
     freq (   11) =      13.091062 [THz] =     436.670823 [cm-1]
     freq (   12) =      13.288752 [THz] =     443.265045 [cm-1]
     freq (   13) =      13.301309 [THz] =     443.683924 [cm-1]
     freq (   14) =      15.970637 [THz] =     532.723095 [cm-1]
     freq (   15) =      16.441517 [THz] =     548.429979 [cm-1]
     freq (   16) =      16.441843 [THz] =     548.440859 [cm-1]
     freq (   17) =      17.498464 [THz] =     583.685916 [cm-1]
     freq (   18) =      21.132613 [THz] =     704.908079 [cm-1]
 **************************************************************************

     Mode symmetry, C_2v (mm2)  point group:

     freq (  1 -  1) =        -21.9  [cm-1]   --> A_1  D_1  S_1   I+R
     freq (  2 -  2) =        -18.9  [cm-1]   --> B_1  D_3  S_3   I+R
     freq (  3 -  3) =         24.3  [cm-1]   --> B_2  D_4  S_4   I+R
     freq (  4 -  4) =         99.3  [cm-1]   --> B_1  D_3  S_3   I+R
     freq (  5 -  5) =        141.4  [cm-1]   --> B_2  D_4  S_4   I+R
     freq (  6 -  6) =        213.9  [cm-1]   --> A_1  D_1  S_1   I+R
     freq (  7 -  7) =        214.0  [cm-1]   --> B_1  D_3  S_3   I+R
     freq (  8 -  8) =        260.0  [cm-1]   --> B_1  D_3  S_3   I+R
     freq (  9 -  9) =        260.1  [cm-1]   --> A_1  D_1  S_1   I+R
     freq ( 10 - 10) =        335.0  [cm-1]   --> B_1  D_3  S_3   I+R
     freq ( 11 - 11) =        436.7  [cm-1]   --> B_2  D_4  S_4   I+R
     freq ( 12 - 12) =        443.3  [cm-1]   --> A_2  D_2  S_2   R  
     freq ( 13 - 13) =        443.7  [cm-1]   --> B_2  D_4  S_4   I+R
     freq ( 14 - 14) =        532.7  [cm-1]   --> B_2  D_4  S_4   I+R
     freq ( 15 - 15) =        548.4  [cm-1]   --> A_1  D_1  S_1   I+R
     freq ( 16 - 16) =        548.4  [cm-1]   --> B_1  D_3  S_3   I+R
     freq ( 17 - 17) =        583.7  [cm-1]   --> A_1  D_1  S_1   I+R
     freq ( 18 - 18) =        704.9  [cm-1]   --> A_1  D_1  S_1   I+R
 
     PHONON       :     4h52m CPU        5h 3m WALL

     INITIALIZATION: 
     phq_setup    :      0.05s CPU      0.11s WALL (       1 calls)
     phq_init     :      4.95s CPU      5.03s WALL (       1 calls)
 
     phq_init     :      4.95s CPU      5.03s WALL (       1 calls)
     set_drhoc    :      0.56s CPU      0.57s WALL (       3 calls)
     init_vloc    :      0.03s CPU      0.03s WALL (       1 calls)
     init_us_1    :      0.01s CPU      0.01s WALL (       1 calls)
 
     DIELECTRIC CONSTANT AND EFFECTIVE CHARGES:
     solve_e      :   3198.81s CPU   3297.20s WALL (       1 calls)
     dielec       :      0.12s CPU     14.77s WALL (       1 calls)
     zstar_eu     :    140.93s CPU    142.92s WALL (       1 calls)
 
     DYNAMICAL MATRIX:
     dynmat0      :      3.27s CPU      3.30s WALL (       1 calls)
     phqscf       :  14197.23s CPU  14751.82s WALL (       1 calls)
     dynmatrix    :      0.00s CPU      0.07s WALL (       1 calls)
 
     phqscf       :  14197.23s CPU  14751.82s WALL (       1 calls)
     solve_linter :  14013.92s CPU  14545.13s WALL (      18 calls)
     drhodv       :    177.16s CPU    195.25s WALL (      18 calls)
     add_zstar_ue :      3.83s CPU      7.32s WALL (      18 calls)
 
     dynmat0      :      3.27s CPU      3.30s WALL (       1 calls)
     dynmat_us    :      2.85s CPU      2.87s WALL (       1 calls)
     d2ionq       :      0.02s CPU      0.02s WALL (       1 calls)
     dynmatcc     :      0.39s CPU      0.40s WALL (       1 calls)
 
     dynmat_us    :      2.85s CPU      2.87s WALL (       1 calls)
 
     phqscf       :  14197.23s CPU  14751.82s WALL (       1 calls)
     solve_linter :  14013.92s CPU  14545.13s WALL (      18 calls)
 
     solve_linter :  14013.92s CPU  14545.13s WALL (      18 calls)
     dvqpsi_us    :    248.93s CPU    254.64s WALL (    6696 calls)
     ortho        :     53.46s CPU     54.02s WALL (   32922 calls)
     cgsolve      :  14753.81s CPU  14871.98s WALL (   32922 calls)
     incdrhoscf   :   1427.72s CPU   1436.26s WALL (   32364 calls)
     vpsifft      :    677.93s CPU    685.74s WALL (   24552 calls)
     dv_of_drho   :      1.87s CPU      1.88s WALL (     174 calls)
     mix_pot      :      0.58s CPU     19.66s WALL (     158 calls)
     psymdvscf    :      3.98s CPU      3.98s WALL (     150 calls)
 
     dvqpsi_us    :    248.93s CPU    254.64s WALL (    6696 calls)
     dvqpsi_us_on :     25.72s CPU     25.67s WALL (    6696 calls)
 
     cgsolve      :  14753.81s CPU  14871.98s WALL (   32922 calls)
     ch_psi       :  14502.02s CPU  14611.55s WALL (  619905 calls)
 
     ch_psi       :  14502.02s CPU  14611.55s WALL (  619905 calls)
     h_psi        :  13144.10s CPU  13245.38s WALL (  619905 calls)
     last         :   1300.58s CPU   1304.74s WALL (  619905 calls)
 
     h_psi        :  13144.10s CPU  13245.38s WALL (  619905 calls)
     add_vuspsi   :    695.17s CPU    692.72s WALL (  619905 calls)
 
     incdrhoscf   :   1427.72s CPU   1436.26s WALL (   32364 calls)
 
 
      General routines
     calbec       :   1594.81s CPU   1609.79s WALL ( 1255620 calls)
     fft          :     29.81s CPU     31.10s WALL (   36054 calls)
     ffts         :      5.62s CPU      5.79s WALL (    7020 calls)
     fftw         :  13191.04s CPU  13295.85s WALL (25830132 calls)
     davcio       :     11.13s CPU    494.15s WALL (  163628 calls)
     write_rec    :      0.38s CPU     15.42s WALL (     176 calls)
 
 
     PHONON       :     4h52m CPU        5h 3m WALL

 
   This run was terminated on:  16:37: 3  29Apr2018            

=------------------------------------------------------------------------------=
   JOB DONE.
=------------------------------------------------------------------------------=
