
     Program PHONON v.6.2.2 starts on 29Apr2018 at 21:24:30 

     This program is part of the open-source Quantum ESPRESSO suite
     for quantum simulation of materials; please cite
         "P. Giannozzi et al., J. Phys.:Condens. Matter 21 395502 (2009);
         "P. Giannozzi et al., J. Phys.:Condens. Matter 29 465901 (2017);
          URL http://www.quantum-espresso.org", 
     in publications or presentations arising from this work. More details at
     http://www.quantum-espresso.org/quote

     Parallel version (MPI), running on     4 processors

     MPI processes distributed on     4 nodes
     R & G space division:  proc/nbgrp/npool/nimage =       4

     Reading data from directory:
     ./121212.save/

     IMPORTANT: XC functional enforced from input :
     Exchange-correlation      = PBE ( 1  4  3  4 0 0)
     Any further DFT definition will be discarded
     Please, verify this is what you really want

 
     Parallelization info
     --------------------
     sticks:   dense  smooth     PW     G-vecs:    dense   smooth      PW
     Min         500     500    147                11236    11236    1788
     Max         501     501    149                11237    11237    1789
     Sum        2001    2001    593                44945    44945    7155
 

     Check: negative/imaginary core charge=   -0.000002    0.000000


     Dynamical matrices for ( 1, 1, 1)  uniform grid of q-points
     (   1 q-points):
       N         xq(1)         xq(2)         xq(3) 
       1   0.000000000   0.000000000   0.000000000

     Calculation of q =    0.0000000   0.0000000   0.0000000

     Phonon dispersions for SnO2                                                

     bravais-lattice index     =            6
     lattice parameter (alat)  =       9.1370  a.u.
     unit-cell volume          =     512.3005 (a.u.)^3
     number of atoms/cell      =            6
     number of atomic types    =            2
     kinetic-energy cut-off    =      75.0000  Ry
     charge density cut-off    =     300.0000  Ry
     convergence threshold     =      1.0E-14
     beta                      =       0.7000
     number of iterations used =            4
     Exchange-correlation      = PBE ( 1  4  3  4 0 0)


     celldm(1)=    9.13703  celldm(2)=    1.00000  celldm(3)=    0.67160
     celldm(4)=    0.00000  celldm(5)=    0.00000  celldm(6)=    0.00000

     crystal axes: (cart. coord. in units of alat)
               a(1) = (  1.0000  0.0000  0.0000 )  
               a(2) = (  0.0000  1.0000  0.0000 )  
               a(3) = (  0.0000  0.0000  0.6716 )  

     reciprocal axes: (cart. coord. in units 2 pi/alat)
               b(1) = (  1.0000  0.0000  0.0000 )  
               b(2) = (  0.0000  1.0000  0.0000 )  
               b(3) = (  0.0000  0.0000  1.4890 )  


     Atoms inside the unit cell: 

     Cartesian axes

     site n.  atom      mass           positions (alat units)
        1     Sn 118.7100   tau(    1) = (   -0.00033   -0.00033    0.00000  )
        2     Sn 118.7100   tau(    2) = (    0.49967    0.49967    0.33580  )
        3     O   15.9990   tau(    3) = (    0.80637    0.19296    0.33580  )
        4     O   15.9990   tau(    4) = (    0.19296    0.80637    0.33580  )
        5     O   15.9990   tau(    5) = (    0.30637    0.30637    0.00000  )
        6     O   15.9990   tau(    6) = (    0.69296    0.69296    0.00000  )

     Computing dynamical matrix for 
                    q = (   0.0000000   0.0000000   0.0000000 )
 
      5 Sym.Ops. (with q -> -q+G )


     G cutoff =  634.4127  (  11237 G-vectors)     FFT grid: ( 54, 54, 36)
     number of k points=   301

     PseudoPot. # 1 for Sn read from file:
     ../../../Pseudo_potentials/Sn_PBE.upf
     MD5 check sum: 78e6386ae56e929f0568ae8bf606a80c
     Pseudo is Norm-conserving + core correction, Zval = 14.0
     Generated using ONCVPSP code by D. R. Hamann
     Using radial grid of 1628 points,  6 beta functions with: 
                l(1) =   0
                l(2) =   0
                l(3) =   1
                l(4) =   1
                l(5) =   2
                l(6) =   2

     PseudoPot. # 2 for O  read from file:
     ../../../Pseudo_potentials/O_PBE.upf
     MD5 check sum: 3e3f909f7470e8921608ab6b1f57bbae
     Pseudo is Norm-conserving + core correction, Zval =  6.0
     Generated using ONCVPSP code by D. R. Hamann
     Using radial grid of  936 points,  5 beta functions with: 
                l(1) =   0
                l(2) =   0
                l(3) =   1
                l(4) =   1
                l(5) =   2

     Mode symmetry, C_2v (mm2)  point group:


     Electric field:
     Dielectric constant
     Born effective charges in two ways 


     Atomic displacements:
     There are  18 irreducible representations

     Representation     1      1 modes -A_1  D_1  S_1  To be done

     Representation     2      1 modes -A_1  D_1  S_1  To be done

     Representation     3      1 modes -A_1  D_1  S_1  To be done

     Representation     4      1 modes -A_1  D_1  S_1  To be done

     Representation     5      1 modes -A_1  D_1  S_1  To be done

     Representation     6      1 modes -A_1  D_1  S_1  To be done

     Representation     7      1 modes -A_2  D_2  S_2  To be done

     Representation     8      1 modes -B_1  D_3  S_3  To be done

     Representation     9      1 modes -B_1  D_3  S_3  To be done

     Representation    10      1 modes -B_1  D_3  S_3  To be done

     Representation    11      1 modes -B_1  D_3  S_3  To be done

     Representation    12      1 modes -B_1  D_3  S_3  To be done

     Representation    13      1 modes -B_1  D_3  S_3  To be done

     Representation    14      1 modes -B_2  D_4  S_4  To be done

     Representation    15      1 modes -B_2  D_4  S_4  To be done

     Representation    16      1 modes -B_2  D_4  S_4  To be done

     Representation    17      1 modes -B_2  D_4  S_4  To be done

     Representation    18      1 modes -B_2  D_4  S_4  To be done



     Alpha used in Ewald sum =   2.7000
     PHONON       :    34.77s CPU        53.88s WALL


     Electric Fields Calculation

      iter #   1 total cpu time :  5506.4 secs   av.it.:   7.6
      thresh= 1.000E-02 alpha_mix =  0.700 |ddv_scf|^2 =  4.943E-08

      iter #   2 total cpu time :  7776.0 secs   av.it.:  14.5
      thresh= 2.223E-05 alpha_mix =  0.700 |ddv_scf|^2 =  7.704E-08

      iter #   3 total cpu time :  9816.3 secs   av.it.:  12.6
      thresh= 2.776E-05 alpha_mix =  0.700 |ddv_scf|^2 =  4.105E-09

      iter #   4 total cpu time : 11990.1 secs   av.it.:  13.7
      thresh= 6.407E-06 alpha_mix =  0.700 |ddv_scf|^2 =  1.748E-10

      iter #   5 total cpu time : 14147.9 secs   av.it.:  13.9
      thresh= 1.322E-06 alpha_mix =  0.700 |ddv_scf|^2 =  1.743E-11

      iter #   6 total cpu time : 16281.4 secs   av.it.:  13.5
      thresh= 4.175E-07 alpha_mix =  0.700 |ddv_scf|^2 =  1.633E-13

      iter #   7 total cpu time : 18380.4 secs   av.it.:  14.9
      thresh= 4.041E-08 alpha_mix =  0.700 |ddv_scf|^2 =  5.229E-14

      iter #   8 total cpu time : 20227.7 secs   av.it.:  14.0
      thresh= 2.287E-08 alpha_mix =  0.700 |ddv_scf|^2 =  4.954E-16

     End of electric fields calculation

          Dielectric constant in cartesian axis 

          (       4.847204618       0.000000005       0.000000000 )
          (       0.000000005       4.847204618       0.000000000 )
          (       0.000000000       0.000000000       5.106774546 )

          Effective charges (d Force / dE) in cartesian axis

           atom      1   Sn 
      Ex  (        4.18470        0.56161        0.00000 )
      Ey  (        0.56161        4.18470        0.00000 )
      Ez  (        0.00000        0.00000        4.59630 )
           atom      2   Sn 
      Ex  (        4.18470       -0.56161        0.00000 )
      Ey  (       -0.56161        4.18470        0.00000 )
      Ez  (        0.00000        0.00000        4.59630 )
           atom      3   O  
      Ex  (       -2.09235        0.79922       -0.00000 )
      Ey  (        0.79921       -2.09231        0.00000 )
      Ez  (        0.00000        0.00000       -2.29820 )
           atom      4   O  
      Ex  (       -2.09231        0.79921       -0.00000 )
      Ey  (        0.79922       -2.09235        0.00000 )
      Ez  (        0.00000        0.00000       -2.29820 )
           atom      5   O  
      Ex  (       -2.09232       -0.79921        0.00000 )
      Ey  (       -0.79921       -2.09232       -0.00000 )
      Ez  (        0.00000        0.00000       -2.29820 )
           atom      6   O  
      Ex  (       -2.09234       -0.79922        0.00000 )
      Ey  (       -0.79922       -2.09234        0.00000 )
      Ez  (        0.00000       -0.00000       -2.29820 )


     Representation #  1 mode #   1

     Self-consistent Calculation

      iter #   1 total cpu time : 21545.0 secs   av.it.:   6.9
      thresh= 1.000E-02 alpha_mix =  0.700 |ddv_scf|^2 =  2.766E-06

      iter #   2 total cpu time : 22133.8 secs   av.it.:  13.0
      thresh= 1.663E-04 alpha_mix =  0.700 |ddv_scf|^2 =  7.179E-07

      iter #   3 total cpu time : 22709.3 secs   av.it.:  12.9
      thresh= 8.473E-05 alpha_mix =  0.700 |ddv_scf|^2 =  2.419E-07

      iter #   4 total cpu time : 23257.7 secs   av.it.:  12.1
      thresh= 4.918E-05 alpha_mix =  0.700 |ddv_scf|^2 =  1.014E-08

      iter #   5 total cpu time : 23834.5 secs   av.it.:  12.8
      thresh= 1.007E-05 alpha_mix =  0.700 |ddv_scf|^2 =  7.467E-11

      iter #   6 total cpu time : 24432.5 secs   av.it.:  13.5
      thresh= 8.641E-07 alpha_mix =  0.700 |ddv_scf|^2 =  3.586E-11

      iter #   7 total cpu time : 25015.4 secs   av.it.:  12.9
      thresh= 5.988E-07 alpha_mix =  0.700 |ddv_scf|^2 =  1.602E-11

      iter #   8 total cpu time : 25566.8 secs   av.it.:  12.2
      thresh= 4.003E-07 alpha_mix =  0.700 |ddv_scf|^2 =  7.007E-13

      iter #   9 total cpu time : 26145.0 secs   av.it.:  12.8
      thresh= 8.371E-08 alpha_mix =  0.700 |ddv_scf|^2 =  2.486E-14

      iter #  10 total cpu time : 26740.2 secs   av.it.:  13.6
      thresh= 1.577E-08 alpha_mix =  0.700 |ddv_scf|^2 =  1.227E-14

      iter #  11 total cpu time : 27310.0 secs   av.it.:  12.6
      thresh= 1.108E-08 alpha_mix =  0.700 |ddv_scf|^2 =  8.788E-15

     End of self-consistent calculation

     Convergence has been achieved 


     Representation #  2 mode #   2

     Self-consistent Calculation

      iter #   1 total cpu time : 27689.7 secs   av.it.:   7.3
      thresh= 1.000E-02 alpha_mix =  0.700 |ddv_scf|^2 =  9.427E-06

      iter #   2 total cpu time : 28250.3 secs   av.it.:  12.6
      thresh= 3.070E-04 alpha_mix =  0.700 |ddv_scf|^2 =  5.683E-06

      iter #   3 total cpu time : 28787.9 secs   av.it.:  11.7
      thresh= 2.384E-04 alpha_mix =  0.700 |ddv_scf|^2 =  1.457E-07

      iter #   4 total cpu time : 29344.0 secs   av.it.:  12.4
      thresh= 3.818E-05 alpha_mix =  0.700 |ddv_scf|^2 =  5.505E-08

      iter #   5 total cpu time : 29885.0 secs   av.it.:  11.9
      thresh= 2.346E-05 alpha_mix =  0.700 |ddv_scf|^2 =  8.363E-11

      iter #   6 total cpu time : 30471.5 secs   av.it.:  13.2
      thresh= 9.145E-07 alpha_mix =  0.700 |ddv_scf|^2 =  1.299E-11

      iter #   7 total cpu time : 31068.9 secs   av.it.:  13.3
      thresh= 3.605E-07 alpha_mix =  0.700 |ddv_scf|^2 =  1.539E-11

      iter #   8 total cpu time : 31619.2 secs   av.it.:  12.2
      thresh= 3.923E-07 alpha_mix =  0.700 |ddv_scf|^2 =  2.071E-13

      iter #   9 total cpu time : 32210.5 secs   av.it.:  13.4
      thresh= 4.551E-08 alpha_mix =  0.700 |ddv_scf|^2 =  3.490E-14

      iter #  10 total cpu time : 32799.4 secs   av.it.:  13.0
      thresh= 1.868E-08 alpha_mix =  0.700 |ddv_scf|^2 =  2.095E-15

     End of self-consistent calculation

     Convergence has been achieved 


     Representation #  3 mode #   3

     Self-consistent Calculation

      iter #   1 total cpu time : 33218.0 secs   av.it.:   8.5
      thresh= 1.000E-02 alpha_mix =  0.700 |ddv_scf|^2 =  2.415E-05

      iter #   2 total cpu time : 33814.9 secs   av.it.:  13.2
      thresh= 4.914E-04 alpha_mix =  0.700 |ddv_scf|^2 =  2.358E-05

      iter #   3 total cpu time : 34367.7 secs   av.it.:  12.4
      thresh= 4.855E-04 alpha_mix =  0.700 |ddv_scf|^2 =  1.749E-06

      iter #   4 total cpu time : 34922.3 secs   av.it.:  12.2
      thresh= 1.322E-04 alpha_mix =  0.700 |ddv_scf|^2 =  2.380E-09

      iter #   5 total cpu time : 35502.4 secs   av.it.:  12.9
      thresh= 4.878E-06 alpha_mix =  0.700 |ddv_scf|^2 =  5.335E-11

      iter #   6 total cpu time : 36081.1 secs   av.it.:  12.9
      thresh= 7.304E-07 alpha_mix =  0.700 |ddv_scf|^2 =  1.739E-11

      iter #   7 total cpu time : 36650.2 secs   av.it.:  12.7
      thresh= 4.170E-07 alpha_mix =  0.700 |ddv_scf|^2 =  3.178E-13

      iter #   8 total cpu time : 37234.4 secs   av.it.:  13.2
      thresh= 5.638E-08 alpha_mix =  0.700 |ddv_scf|^2 =  1.151E-14

      iter #   9 total cpu time : 37848.2 secs   av.it.:  13.7
      thresh= 1.073E-08 alpha_mix =  0.700 |ddv_scf|^2 =  1.503E-14

      iter #  10 total cpu time : 38398.2 secs   av.it.:  12.3
      thresh= 1.226E-08 alpha_mix =  0.700 |ddv_scf|^2 =  2.316E-15

     End of self-consistent calculation

     Convergence has been achieved 


     Representation #  4 mode #   4

     Self-consistent Calculation

      iter #   1 total cpu time : 38787.3 secs   av.it.:   7.6
      thresh= 1.000E-02 alpha_mix =  0.700 |ddv_scf|^2 =  6.155E-06

      iter #   2 total cpu time : 39382.9 secs   av.it.:  13.2
      thresh= 2.481E-04 alpha_mix =  0.700 |ddv_scf|^2 =  3.430E-06

      iter #   3 total cpu time : 39936.9 secs   av.it.:  12.5
      thresh= 1.852E-04 alpha_mix =  0.700 |ddv_scf|^2 =  1.705E-07

      iter #   4 total cpu time : 40514.5 secs   av.it.:  12.7
      thresh= 4.129E-05 alpha_mix =  0.700 |ddv_scf|^2 =  3.887E-08

      iter #   5 total cpu time : 41065.0 secs   av.it.:  12.3
      thresh= 1.972E-05 alpha_mix =  0.700 |ddv_scf|^2 =  4.074E-10

      iter #   6 total cpu time : 41663.3 secs   av.it.:  13.4
      thresh= 2.018E-06 alpha_mix =  0.700 |ddv_scf|^2 =  2.840E-10

      iter #   7 total cpu time : 42260.5 secs   av.it.:  12.4
      thresh= 1.685E-06 alpha_mix =  0.700 |ddv_scf|^2 =  8.143E-12

      iter #   8 total cpu time : 43053.9 secs   av.it.:  13.3
      thresh= 2.854E-07 alpha_mix =  0.700 |ddv_scf|^2 =  1.074E-12

      iter #   9 total cpu time : 43954.6 secs   av.it.:  13.6
      thresh= 1.037E-07 alpha_mix =  0.700 |ddv_scf|^2 =  1.440E-13

      iter #  10 total cpu time : 44800.2 secs   av.it.:  12.9
      thresh= 3.794E-08 alpha_mix =  0.700 |ddv_scf|^2 =  7.261E-15

     End of self-consistent calculation

     Convergence has been achieved 


     Representation #  5 mode #   5

     Self-consistent Calculation

      iter #   1 total cpu time : 45409.3 secs   av.it.:   8.3
      thresh= 1.000E-02 alpha_mix =  0.700 |ddv_scf|^2 =  2.060E-05

      iter #   2 total cpu time : 46318.3 secs   av.it.:  13.0
      thresh= 4.539E-04 alpha_mix =  0.700 |ddv_scf|^2 =  1.771E-05

      iter #   3 total cpu time : 47190.4 secs   av.it.:  12.4
      thresh= 4.208E-04 alpha_mix =  0.700 |ddv_scf|^2 =  1.810E-06

      iter #   4 total cpu time : 48051.2 secs   av.it.:  12.2
      thresh= 1.345E-04 alpha_mix =  0.700 |ddv_scf|^2 =  2.405E-09

      iter #   5 total cpu time : 49004.8 secs   av.it.:  12.9
      thresh= 4.904E-06 alpha_mix =  0.700 |ddv_scf|^2 =  1.922E-10

      iter #   6 total cpu time : 49900.5 secs   av.it.:  12.4
      thresh= 1.386E-06 alpha_mix =  0.700 |ddv_scf|^2 =  7.475E-11

      iter #   7 total cpu time : 50774.1 secs   av.it.:  12.2
      thresh= 8.646E-07 alpha_mix =  0.700 |ddv_scf|^2 =  1.341E-12

      iter #   8 total cpu time : 51684.7 secs   av.it.:  12.4
      thresh= 1.158E-07 alpha_mix =  0.700 |ddv_scf|^2 =  1.873E-14

      iter #   9 total cpu time : 52640.9 secs   av.it.:  13.1
      thresh= 1.369E-08 alpha_mix =  0.700 |ddv_scf|^2 =  1.880E-15

     End of self-consistent calculation

     Convergence has been achieved 


     Representation #  6 mode #   6

     Self-consistent Calculation

      iter #   1 total cpu time : 53253.0 secs   av.it.:   7.6
      thresh= 1.000E-02 alpha_mix =  0.700 |ddv_scf|^2 =  6.155E-06

      iter #   2 total cpu time : 54218.1 secs   av.it.:  13.2
      thresh= 2.481E-04 alpha_mix =  0.700 |ddv_scf|^2 =  3.430E-06

      iter #   3 total cpu time : 55100.3 secs   av.it.:  12.5
      thresh= 1.852E-04 alpha_mix =  0.700 |ddv_scf|^2 =  1.705E-07

      iter #   4 total cpu time : 56017.3 secs   av.it.:  12.7
      thresh= 4.129E-05 alpha_mix =  0.700 |ddv_scf|^2 =  3.887E-08

      iter #   5 total cpu time : 56891.6 secs   av.it.:  12.3
      thresh= 1.971E-05 alpha_mix =  0.700 |ddv_scf|^2 =  4.075E-10

      iter #   6 total cpu time : 57821.4 secs   av.it.:  13.4
      thresh= 2.019E-06 alpha_mix =  0.700 |ddv_scf|^2 =  2.839E-10

      iter #   7 total cpu time : 58696.1 secs   av.it.:  12.4
      thresh= 1.685E-06 alpha_mix =  0.700 |ddv_scf|^2 =  8.142E-12

      iter #   8 total cpu time : 59655.4 secs   av.it.:  13.3
      thresh= 2.853E-07 alpha_mix =  0.700 |ddv_scf|^2 =  1.074E-12

      iter #   9 total cpu time : 60603.2 secs   av.it.:  13.6
      thresh= 1.037E-07 alpha_mix =  0.700 |ddv_scf|^2 =  1.440E-13

      iter #  10 total cpu time : 61563.2 secs   av.it.:  12.9
      thresh= 3.794E-08 alpha_mix =  0.700 |ddv_scf|^2 =  7.260E-15

     End of self-consistent calculation

     Convergence has been achieved 


     Representation #  7 mode #   7

     Self-consistent Calculation

      iter #   1 total cpu time : 62137.8 secs   av.it.:   6.7
      thresh= 1.000E-02 alpha_mix =  0.700 |ddv_scf|^2 =  1.409E-06

      iter #   2 total cpu time : 62968.9 secs   av.it.:  12.6
      thresh= 1.187E-04 alpha_mix =  0.700 |ddv_scf|^2 =  1.737E-08

      iter #   3 total cpu time : 63885.6 secs   av.it.:  12.7
      thresh= 1.318E-05 alpha_mix =  0.700 |ddv_scf|^2 =  1.996E-10

      iter #   4 total cpu time : 64820.4 secs   av.it.:  12.6
      thresh= 1.413E-06 alpha_mix =  0.700 |ddv_scf|^2 =  1.693E-12

      iter #   5 total cpu time : 65658.1 secs   av.it.:  12.7
      thresh= 1.301E-07 alpha_mix =  0.700 |ddv_scf|^2 =  9.544E-15

     End of self-consistent calculation

     Convergence has been achieved 


     Representation #  8 mode #   8

     Self-consistent Calculation

      iter #   1 total cpu time : 66197.1 secs   av.it.:   7.0
      thresh= 1.000E-02 alpha_mix =  0.700 |ddv_scf|^2 =  4.904E-06

      iter #   2 total cpu time : 67127.0 secs   av.it.:  12.6
      thresh= 2.214E-04 alpha_mix =  0.700 |ddv_scf|^2 =  6.239E-07

      iter #   3 total cpu time : 68037.2 secs   av.it.:  12.6
      thresh= 7.899E-05 alpha_mix =  0.700 |ddv_scf|^2 =  4.812E-08

      iter #   4 total cpu time : 68913.0 secs   av.it.:  12.3
      thresh= 2.194E-05 alpha_mix =  0.700 |ddv_scf|^2 =  5.824E-09

      iter #   5 total cpu time : 69792.7 secs   av.it.:  12.4
      thresh= 7.632E-06 alpha_mix =  0.700 |ddv_scf|^2 =  1.018E-10

      iter #   6 total cpu time : 70731.1 secs   av.it.:  13.4
      thresh= 1.009E-06 alpha_mix =  0.700 |ddv_scf|^2 =  9.009E-12

      iter #   7 total cpu time : 71677.7 secs   av.it.:  13.2
      thresh= 3.002E-07 alpha_mix =  0.700 |ddv_scf|^2 =  2.007E-13

      iter #   8 total cpu time : 72605.3 secs   av.it.:  12.8
      thresh= 4.480E-08 alpha_mix =  0.700 |ddv_scf|^2 =  7.608E-15

     End of self-consistent calculation

     Convergence has been achieved 


     Representation #  9 mode #   9

     Self-consistent Calculation

      iter #   1 total cpu time : 73290.5 secs   av.it.:   8.5
      thresh= 1.000E-02 alpha_mix =  0.700 |ddv_scf|^2 =  2.415E-05

      iter #   2 total cpu time : 74192.6 secs   av.it.:  13.2
      thresh= 4.914E-04 alpha_mix =  0.700 |ddv_scf|^2 =  2.358E-05

      iter #   3 total cpu time : 75056.1 secs   av.it.:  12.3
      thresh= 4.855E-04 alpha_mix =  0.700 |ddv_scf|^2 =  1.749E-06

      iter #   4 total cpu time : 75903.0 secs   av.it.:  12.2
      thresh= 1.322E-04 alpha_mix =  0.700 |ddv_scf|^2 =  2.380E-09

      iter #   5 total cpu time : 76877.9 secs   av.it.:  12.9
      thresh= 4.878E-06 alpha_mix =  0.700 |ddv_scf|^2 =  5.335E-11

      iter #   6 total cpu time : 77772.5 secs   av.it.:  12.8
      thresh= 7.304E-07 alpha_mix =  0.700 |ddv_scf|^2 =  1.739E-11

      iter #   7 total cpu time : 78627.1 secs   av.it.:  12.7
      thresh= 4.170E-07 alpha_mix =  0.700 |ddv_scf|^2 =  3.173E-13

      iter #   8 total cpu time : 79590.6 secs   av.it.:  13.1
      thresh= 5.633E-08 alpha_mix =  0.700 |ddv_scf|^2 =  8.994E-15

     End of self-consistent calculation

     Convergence has been achieved 


     Representation # 10 mode #  10

     Self-consistent Calculation

      iter #   1 total cpu time : 80202.1 secs   av.it.:   7.0
      thresh= 1.000E-02 alpha_mix =  0.700 |ddv_scf|^2 =  3.911E-06

      iter #   2 total cpu time : 81117.0 secs   av.it.:  12.9
      thresh= 1.978E-04 alpha_mix =  0.700 |ddv_scf|^2 =  6.411E-07

      iter #   3 total cpu time : 82060.2 secs   av.it.:  12.9
      thresh= 8.007E-05 alpha_mix =  0.700 |ddv_scf|^2 =  1.594E-07

      iter #   4 total cpu time : 82886.8 secs   av.it.:  12.2
      thresh= 3.993E-05 alpha_mix =  0.700 |ddv_scf|^2 =  6.003E-09

      iter #   5 total cpu time : 83781.9 secs   av.it.:  12.8
      thresh= 7.748E-06 alpha_mix =  0.700 |ddv_scf|^2 =  1.503E-10

      iter #   6 total cpu time : 84686.1 secs   av.it.:  13.4
      thresh= 1.226E-06 alpha_mix =  0.700 |ddv_scf|^2 =  1.023E-11

      iter #   7 total cpu time : 85628.7 secs   av.it.:  12.8
      thresh= 3.199E-07 alpha_mix =  0.700 |ddv_scf|^2 =  4.047E-13

      iter #   8 total cpu time : 86538.1 secs   av.it.:  12.9
      thresh= 6.362E-08 alpha_mix =  0.700 |ddv_scf|^2 =  6.440E-15

     End of self-consistent calculation

     Convergence has been achieved 


     Representation # 11 mode #  11

     Self-consistent Calculation

      iter #   1 total cpu time : 87141.1 secs   av.it.:   7.4
      thresh= 1.000E-02 alpha_mix =  0.700 |ddv_scf|^2 =  3.040E-06

      iter #   2 total cpu time : 88039.6 secs   av.it.:  13.4
      thresh= 1.743E-04 alpha_mix =  0.700 |ddv_scf|^2 =  1.132E-06

      iter #   3 total cpu time : 88949.8 secs   av.it.:  12.9
      thresh= 1.064E-04 alpha_mix =  0.700 |ddv_scf|^2 =  2.738E-07

      iter #   4 total cpu time : 89840.2 secs   av.it.:  12.0
      thresh= 5.232E-05 alpha_mix =  0.700 |ddv_scf|^2 =  6.925E-09

      iter #   5 total cpu time : 90748.3 secs   av.it.:  12.9
      thresh= 8.321E-06 alpha_mix =  0.700 |ddv_scf|^2 =  6.294E-11

      iter #   6 total cpu time : 91703.8 secs   av.it.:  13.4
      thresh= 7.934E-07 alpha_mix =  0.700 |ddv_scf|^2 =  9.208E-12

      iter #   7 total cpu time : 92659.0 secs   av.it.:  13.2
      thresh= 3.035E-07 alpha_mix =  0.700 |ddv_scf|^2 =  6.203E-13

      iter #   8 total cpu time : 93582.9 secs   av.it.:  13.0
      thresh= 7.876E-08 alpha_mix =  0.700 |ddv_scf|^2 =  1.375E-14

      iter #   9 total cpu time : 94571.4 secs   av.it.:  13.6
      thresh= 1.173E-08 alpha_mix =  0.700 |ddv_scf|^2 =  2.127E-15

     End of self-consistent calculation

     Convergence has been achieved 


     Representation # 12 mode #  12

     Self-consistent Calculation

      iter #   1 total cpu time : 95123.9 secs   av.it.:   7.0
      thresh= 1.000E-02 alpha_mix =  0.700 |ddv_scf|^2 =  3.911E-06

      iter #   2 total cpu time : 96044.4 secs   av.it.:  12.9
      thresh= 1.978E-04 alpha_mix =  0.700 |ddv_scf|^2 =  6.411E-07

      iter #   3 total cpu time : 96969.0 secs   av.it.:  12.9
      thresh= 8.007E-05 alpha_mix =  0.700 |ddv_scf|^2 =  1.594E-07

      iter #   4 total cpu time : 97844.3 secs   av.it.:  12.2
      thresh= 3.992E-05 alpha_mix =  0.700 |ddv_scf|^2 =  6.004E-09

      iter #   5 total cpu time : 98809.9 secs   av.it.:  12.8
      thresh= 7.748E-06 alpha_mix =  0.700 |ddv_scf|^2 =  1.503E-10

      iter #   6 total cpu time : 99699.1 secs   av.it.:  13.4
      thresh= 1.226E-06 alpha_mix =  0.700 |ddv_scf|^2 =  1.023E-11

      iter #   7 total cpu time :100598.8 secs   av.it.:  12.8
      thresh= 3.199E-07 alpha_mix =  0.700 |ddv_scf|^2 =  4.047E-13

      iter #   8 total cpu time :101484.7 secs   av.it.:  12.9
      thresh= 6.361E-08 alpha_mix =  0.700 |ddv_scf|^2 =  6.439E-15

     End of self-consistent calculation

     Convergence has been achieved 


     Representation # 13 mode #  13

     Self-consistent Calculation

      iter #   1 total cpu time :102151.6 secs   av.it.:   8.3
      thresh= 1.000E-02 alpha_mix =  0.700 |ddv_scf|^2 =  2.060E-05

      iter #   2 total cpu time :103059.7 secs   av.it.:  13.0
      thresh= 4.539E-04 alpha_mix =  0.700 |ddv_scf|^2 =  1.771E-05

      iter #   3 total cpu time :103959.2 secs   av.it.:  12.4
      thresh= 4.208E-04 alpha_mix =  0.700 |ddv_scf|^2 =  1.810E-06

      iter #   4 total cpu time :104861.3 secs   av.it.:  12.2
      thresh= 1.345E-04 alpha_mix =  0.700 |ddv_scf|^2 =  2.405E-09

      iter #   5 total cpu time :105703.0 secs   av.it.:  12.9
      thresh= 4.904E-06 alpha_mix =  0.700 |ddv_scf|^2 =  1.922E-10

      iter #   6 total cpu time :106584.5 secs   av.it.:  12.4
      thresh= 1.386E-06 alpha_mix =  0.700 |ddv_scf|^2 =  7.475E-11

      iter #   7 total cpu time :107480.0 secs   av.it.:  12.2
      thresh= 8.646E-07 alpha_mix =  0.700 |ddv_scf|^2 =  1.341E-12

      iter #   8 total cpu time :108349.6 secs   av.it.:  12.3
      thresh= 1.158E-07 alpha_mix =  0.700 |ddv_scf|^2 =  1.858E-14

      iter #   9 total cpu time :109242.0 secs   av.it.:  12.8
      thresh= 1.363E-08 alpha_mix =  0.700 |ddv_scf|^2 =  2.955E-16

     End of self-consistent calculation

     Convergence has been achieved 


     Representation # 14 mode #  14

     Self-consistent Calculation

      iter #   1 total cpu time :109860.4 secs   av.it.:   7.8
      thresh= 1.000E-02 alpha_mix =  0.700 |ddv_scf|^2 =  7.083E-06

      iter #   2 total cpu time :110742.8 secs   av.it.:  13.0
      thresh= 2.661E-04 alpha_mix =  0.700 |ddv_scf|^2 =  1.332E-06

      iter #   3 total cpu time :111709.6 secs   av.it.:  12.6
      thresh= 1.154E-04 alpha_mix =  0.700 |ddv_scf|^2 =  4.069E-09

      iter #   4 total cpu time :112604.3 secs   av.it.:  12.8
      thresh= 6.379E-06 alpha_mix =  0.700 |ddv_scf|^2 =  3.079E-10

      iter #   5 total cpu time :113523.5 secs   av.it.:  12.8
      thresh= 1.755E-06 alpha_mix =  0.700 |ddv_scf|^2 =  6.371E-12

      iter #   6 total cpu time :114324.0 secs   av.it.:  12.6
      thresh= 2.524E-07 alpha_mix =  0.700 |ddv_scf|^2 =  1.211E-13

      iter #   7 total cpu time :115115.9 secs   av.it.:  12.9
      thresh= 3.479E-08 alpha_mix =  0.700 |ddv_scf|^2 =  4.651E-15

     End of self-consistent calculation

     Convergence has been achieved 


     Representation # 15 mode #  15

     Self-consistent Calculation

      iter #   1 total cpu time :115664.8 secs   av.it.:   7.0
      thresh= 1.000E-02 alpha_mix =  0.700 |ddv_scf|^2 =  2.044E-06

      iter #   2 total cpu time :116481.3 secs   av.it.:  13.1
      thresh= 1.430E-04 alpha_mix =  0.700 |ddv_scf|^2 =  1.778E-07

      iter #   3 total cpu time :117336.5 secs   av.it.:  13.0
      thresh= 4.216E-05 alpha_mix =  0.700 |ddv_scf|^2 =  4.438E-09

      iter #   4 total cpu time :118144.1 secs   av.it.:  12.8
      thresh= 6.662E-06 alpha_mix =  0.700 |ddv_scf|^2 =  5.012E-11

      iter #   5 total cpu time :118956.6 secs   av.it.:  13.0
      thresh= 7.079E-07 alpha_mix =  0.700 |ddv_scf|^2 =  2.815E-12

      iter #   6 total cpu time :119776.8 secs   av.it.:  12.6
      thresh= 1.678E-07 alpha_mix =  0.700 |ddv_scf|^2 =  8.848E-14

      iter #   7 total cpu time :120562.9 secs   av.it.:  12.4
      thresh= 2.975E-08 alpha_mix =  0.700 |ddv_scf|^2 =  7.145E-15

     End of self-consistent calculation

     Convergence has been achieved 


     Representation # 16 mode #  16

     Self-consistent Calculation

      iter #   1 total cpu time :121081.4 secs   av.it.:   7.1
      thresh= 1.000E-02 alpha_mix =  0.700 |ddv_scf|^2 =  1.727E-06

      iter #   2 total cpu time :121978.4 secs   av.it.:  13.3
      thresh= 1.314E-04 alpha_mix =  0.700 |ddv_scf|^2 =  9.761E-08

      iter #   3 total cpu time :122784.2 secs   av.it.:  13.4
      thresh= 3.124E-05 alpha_mix =  0.700 |ddv_scf|^2 =  4.211E-09

      iter #   4 total cpu time :123638.7 secs   av.it.:  13.0
      thresh= 6.489E-06 alpha_mix =  0.700 |ddv_scf|^2 =  4.973E-11

      iter #   5 total cpu time :124467.4 secs   av.it.:  13.2
      thresh= 7.052E-07 alpha_mix =  0.700 |ddv_scf|^2 =  1.651E-12

      iter #   6 total cpu time :125309.3 secs   av.it.:  12.9
      thresh= 1.285E-07 alpha_mix =  0.700 |ddv_scf|^2 =  8.953E-14

      iter #   7 total cpu time :126171.8 secs   av.it.:  13.0
      thresh= 2.992E-08 alpha_mix =  0.700 |ddv_scf|^2 =  6.675E-15

     End of self-consistent calculation

     Convergence has been achieved 


     Representation # 17 mode #  17

     Self-consistent Calculation

      iter #   1 total cpu time :126742.1 secs   av.it.:   7.8
      thresh= 1.000E-02 alpha_mix =  0.700 |ddv_scf|^2 =  7.083E-06

      iter #   2 total cpu time :127559.6 secs   av.it.:  13.0
      thresh= 2.661E-04 alpha_mix =  0.700 |ddv_scf|^2 =  1.332E-06

      iter #   3 total cpu time :128425.2 secs   av.it.:  12.6
      thresh= 1.154E-04 alpha_mix =  0.700 |ddv_scf|^2 =  4.069E-09

      iter #   4 total cpu time :129181.5 secs   av.it.:  12.8
      thresh= 6.379E-06 alpha_mix =  0.700 |ddv_scf|^2 =  3.079E-10

      iter #   5 total cpu time :129965.1 secs   av.it.:  12.8
      thresh= 1.755E-06 alpha_mix =  0.700 |ddv_scf|^2 =  6.371E-12

      iter #   6 total cpu time :130764.3 secs   av.it.:  12.6
      thresh= 2.524E-07 alpha_mix =  0.700 |ddv_scf|^2 =  1.211E-13

      iter #   7 total cpu time :131628.5 secs   av.it.:  12.9
      thresh= 3.479E-08 alpha_mix =  0.700 |ddv_scf|^2 =  4.651E-15

     End of self-consistent calculation

     Convergence has been achieved 


     Representation # 18 mode #  18

     Self-consistent Calculation

      iter #   1 total cpu time :132148.4 secs   av.it.:   7.1
      thresh= 1.000E-02 alpha_mix =  0.700 |ddv_scf|^2 =  1.727E-06

      iter #   2 total cpu time :132996.6 secs   av.it.:  13.3
      thresh= 1.314E-04 alpha_mix =  0.700 |ddv_scf|^2 =  9.760E-08

      iter #   3 total cpu time :133927.1 secs   av.it.:  13.4
      thresh= 3.124E-05 alpha_mix =  0.700 |ddv_scf|^2 =  4.211E-09

      iter #   4 total cpu time :135044.3 secs   av.it.:  13.0
      thresh= 6.489E-06 alpha_mix =  0.700 |ddv_scf|^2 =  4.973E-11

      iter #   5 total cpu time :136326.0 secs   av.it.:  13.2
      thresh= 7.052E-07 alpha_mix =  0.700 |ddv_scf|^2 =  1.651E-12

      iter #   6 total cpu time :138403.9 secs   av.it.:  12.9
      thresh= 1.285E-07 alpha_mix =  0.700 |ddv_scf|^2 =  8.953E-14

      iter #   7 total cpu time :141851.3 secs   av.it.:  13.0
      thresh= 2.992E-08 alpha_mix =  0.700 |ddv_scf|^2 =  6.675E-15

     End of self-consistent calculation

     Convergence has been achieved 
 
     Number of q in the star =    1
     List of q in the star:
          1   0.000000000   0.000000000   0.000000000

          Dielectric constant in cartesian axis 

          (       4.847204618       0.000000005       0.000000000 )
          (       0.000000005       4.847204618       0.000000000 )
          (       0.000000000       0.000000000       5.106774546 )

          Effective charges (d Force / dE) in cartesian axis

           atom      1   Sn 
      Ex  (        4.18470        0.56161        0.00000 )
      Ey  (        0.56161        4.18470        0.00000 )
      Ez  (        0.00000        0.00000        4.59630 )
           atom      2   Sn 
      Ex  (        4.18470       -0.56161        0.00000 )
      Ey  (       -0.56161        4.18470        0.00000 )
      Ez  (        0.00000        0.00000        4.59630 )
           atom      3   O  
      Ex  (       -2.09235        0.79922       -0.00000 )
      Ey  (        0.79921       -2.09231        0.00000 )
      Ez  (        0.00000        0.00000       -2.29820 )
           atom      4   O  
      Ex  (       -2.09231        0.79921       -0.00000 )
      Ey  (        0.79922       -2.09235        0.00000 )
      Ez  (        0.00000        0.00000       -2.29820 )
           atom      5   O  
      Ex  (       -2.09232       -0.79921        0.00000 )
      Ey  (       -0.79921       -2.09232       -0.00000 )
      Ez  (        0.00000        0.00000       -2.29820 )
           atom      6   O  
      Ex  (       -2.09234       -0.79922        0.00000 )
      Ey  (       -0.79922       -2.09234        0.00000 )
      Ez  (        0.00000       -0.00000       -2.29820 )

          Effective charges (d P / du) in cartesian axis 

           atom      1   Sn 
      Px  (        4.18452        0.56211        0.00000 )
      Py  (        0.56211        4.18452       -0.00000 )
      Pz  (        0.00000        0.00000        4.59646 )
           atom      2   Sn 
      Px  (        4.18452       -0.56211        0.00000 )
      Py  (       -0.56211        4.18452        0.00000 )
      Pz  (        0.00000       -0.00000        4.59646 )
           atom      3   O  
      Px  (       -2.09230        0.79923       -0.00000 )
      Py  (        0.79919       -2.09239        0.00000 )
      Pz  (        0.00000        0.00000       -2.29789 )
           atom      4   O  
      Px  (       -2.09239        0.79919        0.00000 )
      Py  (        0.79923       -2.09230        0.00000 )
      Pz  (        0.00000        0.00000       -2.29789 )
           atom      5   O  
      Px  (       -2.09223       -0.79935        0.00000 )
      Py  (       -0.79935       -2.09223        0.00000 )
      Pz  (        0.00000        0.00000       -2.29789 )
           atom      6   O  
      Px  (       -2.09222       -0.79933        0.00000 )
      Py  (       -0.79933       -2.09222        0.00000 )
      Pz  (        0.00000        0.00000       -2.29790 )

     Diagonalizing the dynamical matrix

     q = (    0.000000000   0.000000000   0.000000000 ) 

 **************************************************************************
     freq (    1) =      -0.654569 [THz] =     -21.834085 [cm-1]
     freq (    2) =      -0.565995 [THz] =     -18.879566 [cm-1]
     freq (    3) =       0.727146 [THz] =      24.254982 [cm-1]
     freq (    4) =       2.977111 [THz] =      99.305723 [cm-1]
     freq (    5) =       4.238341 [THz] =     141.375846 [cm-1]
     freq (    6) =       6.413670 [THz] =     213.936999 [cm-1]
     freq (    7) =       6.414909 [THz] =     213.978329 [cm-1]
     freq (    8) =       7.794496 [THz] =     259.996410 [cm-1]
     freq (    9) =       7.797167 [THz] =     260.085485 [cm-1]
     freq (   10) =      10.042501 [THz] =     334.981773 [cm-1]
     freq (   11) =      13.091044 [THz] =     436.670219 [cm-1]
     freq (   12) =      13.288942 [THz] =     443.271403 [cm-1]
     freq (   13) =      13.301431 [THz] =     443.687990 [cm-1]
     freq (   14) =      15.970887 [THz] =     532.731450 [cm-1]
     freq (   15) =      16.441601 [THz] =     548.432787 [cm-1]
     freq (   16) =      16.441931 [THz] =     548.443785 [cm-1]
     freq (   17) =      17.498467 [THz] =     583.686047 [cm-1]
     freq (   18) =      21.132687 [THz] =     704.910552 [cm-1]
 **************************************************************************

     Mode symmetry, C_2v (mm2)  point group:

     freq (  1 -  1) =        -21.8  [cm-1]   --> A_1  D_1  S_1   I+R
     freq (  2 -  2) =        -18.9  [cm-1]   --> B_1  D_3  S_3   I+R
     freq (  3 -  3) =         24.3  [cm-1]   --> B_2  D_4  S_4   I+R
     freq (  4 -  4) =         99.3  [cm-1]   --> B_1  D_3  S_3   I+R
     freq (  5 -  5) =        141.4  [cm-1]   --> B_2  D_4  S_4   I+R
     freq (  6 -  6) =        213.9  [cm-1]   --> A_1  D_1  S_1   I+R
     freq (  7 -  7) =        214.0  [cm-1]   --> B_1  D_3  S_3   I+R
     freq (  8 -  8) =        260.0  [cm-1]   --> B_1  D_3  S_3   I+R
     freq (  9 -  9) =        260.1  [cm-1]   --> A_1  D_1  S_1   I+R
     freq ( 10 - 10) =        335.0  [cm-1]   --> B_1  D_3  S_3   I+R
     freq ( 11 - 11) =        436.7  [cm-1]   --> B_2  D_4  S_4   I+R
     freq ( 12 - 12) =        443.3  [cm-1]   --> A_2  D_2  S_2   R  
     freq ( 13 - 13) =        443.7  [cm-1]   --> B_2  D_4  S_4   I+R
     freq ( 14 - 14) =        532.7  [cm-1]   --> B_2  D_4  S_4   I+R
     freq ( 15 - 15) =        548.4  [cm-1]   --> A_1  D_1  S_1   I+R
     freq ( 16 - 16) =        548.4  [cm-1]   --> B_1  D_3  S_3   I+R
     freq ( 17 - 17) =        583.7  [cm-1]   --> A_1  D_1  S_1   I+R
     freq ( 18 - 18) =        704.9  [cm-1]   --> A_1  D_1  S_1   I+R
 
     PHONON       :     1d    0h50m CPU        1d   15h24m WALL

     INITIALIZATION: 
     phq_setup    :      0.09s CPU      0.14s WALL (       1 calls)
     phq_init     :     18.33s CPU     21.39s WALL (       1 calls)
 
     phq_init     :     18.33s CPU     21.39s WALL (       1 calls)
     set_drhoc    :      0.85s CPU      0.86s WALL (       3 calls)
     init_vloc    :      0.05s CPU      0.05s WALL (       1 calls)
     init_us_1    :      0.01s CPU      0.01s WALL (       1 calls)
 
     DIELECTRIC CONSTANT AND EFFECTIVE CHARGES:
     solve_e      :  13200.20s CPU  20173.81s WALL (       1 calls)
     dielec       :      1.46s CPU      5.07s WALL (       1 calls)
     zstar_eu     :    613.66s CPU    959.85s WALL (       1 calls)
 
     DYNAMICAL MATRIX:
     dynmat0      :     11.74s CPU     13.39s WALL (       1 calls)
     phqscf       :  75596.86s CPU 120677.28s WALL (       1 calls)
     dynmatrix    :      0.05s CPU      0.11s WALL (       1 calls)
 
     phqscf       :  75596.86s CPU 120677.28s WALL (       1 calls)
     solve_linter :  75453.41s CPU 120481.53s WALL (      18 calls)
     drhodv       :    132.30s CPU    178.51s WALL (      18 calls)
     add_zstar_ue :     10.91s CPU     16.41s WALL (      18 calls)
 
     dynmat0      :     11.74s CPU     13.39s WALL (       1 calls)
     dynmat_us    :     11.07s CPU     12.67s WALL (       1 calls)
     d2ionq       :      0.04s CPU      0.04s WALL (       1 calls)
     dynmatcc     :      0.63s CPU      0.66s WALL (       1 calls)
 
     dynmat_us    :     11.07s CPU     12.67s WALL (       1 calls)
 
     phqscf       :  75596.86s CPU 120677.28s WALL (       1 calls)
     solve_linter :  75453.41s CPU 120481.53s WALL (      18 calls)
 
     solve_linter :  75453.41s CPU 120481.53s WALL (      18 calls)
     dvqpsi_us    :   1179.60s CPU   1874.19s WALL (   10836 calls)
     ortho        :    187.38s CPU    244.33s WALL (   53277 calls)
     cgsolve      :  78513.60s CPU 124004.07s WALL (   53277 calls)
     incdrhoscf   :   4875.01s CPU   8028.92s WALL (   52374 calls)
     vpsifft      :   3816.05s CPU   6324.41s WALL (   39732 calls)
     dv_of_drho   :      9.18s CPU     16.00s WALL (     174 calls)
     mix_pot      :      0.84s CPU      5.55s WALL (     158 calls)
     psymdvscf    :      8.60s CPU     11.52s WALL (     150 calls)
 
     dvqpsi_us    :   1179.60s CPU   1874.19s WALL (   10836 calls)
     dvqpsi_us_on :     74.98s CPU     75.14s WALL (   10836 calls)
 
     cgsolve      :  78513.60s CPU 124004.07s WALL (   53277 calls)
     ch_psi       :  76982.54s CPU 121510.70s WALL ( 1006322 calls)
 
     ch_psi       :  76982.54s CPU 121510.70s WALL ( 1006322 calls)
     h_psi        :  70429.98s CPU 112794.58s WALL ( 1006322 calls)
     last         :   6415.57s CPU   8299.42s WALL ( 1006322 calls)
 
     h_psi        :  70429.98s CPU 112794.58s WALL ( 1006322 calls)
     add_vuspsi   :   2539.10s CPU   2547.63s WALL ( 1006322 calls)
 
     incdrhoscf   :   4875.01s CPU   8028.92s WALL (   52374 calls)
 
 
      General routines
     calbec       :   7579.62s CPU   9765.71s WALL ( 2038229 calls)
     fft          :    173.39s CPU    297.28s WALL (   56754 calls)
     ffts         :     39.04s CPU     68.46s WALL (   11160 calls)
     fftw         :  71470.42s CPU 119140.60s WALL (42012294 calls)
     davcio       :     19.60s CPU    115.01s WALL (  264023 calls)
     write_rec    :      0.60s CPU      4.25s WALL (     176 calls)
 
 
     PHONON       :     1d    0h50m CPU        1d   15h24m WALL

 
   This run was terminated on:  12:49: 3   1May2018            

=------------------------------------------------------------------------------=
   JOB DONE.
=------------------------------------------------------------------------------=
