
     Program PHONON v.6.2.2 starts on 28Apr2018 at 17:58:10 

     This program is part of the open-source Quantum ESPRESSO suite
     for quantum simulation of materials; please cite
         "P. Giannozzi et al., J. Phys.:Condens. Matter 21 395502 (2009);
         "P. Giannozzi et al., J. Phys.:Condens. Matter 29 465901 (2017);
          URL http://www.quantum-espresso.org", 
     in publications or presentations arising from this work. More details at
     http://www.quantum-espresso.org/quote

     Parallel version (MPI), running on     4 processors

     MPI processes distributed on     1 nodes
     R & G space division:  proc/nbgrp/npool/nimage =       4

     Reading data from directory:
     ./555.save/

     IMPORTANT: XC functional enforced from input :
     Exchange-correlation      = PBE ( 1  4  3  4 0 0)
     Any further DFT definition will be discarded
     Please, verify this is what you really want

 
     Parallelization info
     --------------------
     sticks:   dense  smooth     PW     G-vecs:    dense   smooth      PW
     Min         500     500    139                11236    11236    1684
     Max         501     501    141                11237    11237    1685
     Sum        2001    2001    561                44945    44945    6739
 

     Check: negative/imaginary core charge=   -0.000002    0.000000


     Dynamical matrices for ( 1, 1, 1)  uniform grid of q-points
     (   1 q-points):
       N         xq(1)         xq(2)         xq(3) 
       1   0.000000000   0.000000000   0.000000000

     Calculation of q =    0.0000000   0.0000000   0.0000000

     Phonon dispersions for SnO2                                                

     bravais-lattice index     =            6
     lattice parameter (alat)  =       9.1370  a.u.
     unit-cell volume          =     512.3005 (a.u.)^3
     number of atoms/cell      =            6
     number of atomic types    =            2
     kinetic-energy cut-off    =      75.0000  Ry
     charge density cut-off    =     300.0000  Ry
     convergence threshold     =      1.0E-14
     beta                      =       0.7000
     number of iterations used =            4
     Exchange-correlation      = PBE ( 1  4  3  4 0 0)


     celldm(1)=    9.13703  celldm(2)=    1.00000  celldm(3)=    0.67160
     celldm(4)=    0.00000  celldm(5)=    0.00000  celldm(6)=    0.00000

     crystal axes: (cart. coord. in units of alat)
               a(1) = (  1.0000  0.0000  0.0000 )  
               a(2) = (  0.0000  1.0000  0.0000 )  
               a(3) = (  0.0000  0.0000  0.6716 )  

     reciprocal axes: (cart. coord. in units 2 pi/alat)
               b(1) = (  1.0000  0.0000  0.0000 )  
               b(2) = (  0.0000  1.0000  0.0000 )  
               b(3) = (  0.0000  0.0000  1.4890 )  


     Atoms inside the unit cell: 

     Cartesian axes

     site n.  atom      mass           positions (alat units)
        1     Sn 118.7100   tau(    1) = (   -0.00033   -0.00033    0.00000  )
        2     Sn 118.7100   tau(    2) = (    0.49967    0.49967    0.33580  )
        3     O   15.9990   tau(    3) = (    0.80637    0.19296    0.33580  )
        4     O   15.9990   tau(    4) = (    0.19296    0.80637    0.33580  )
        5     O   15.9990   tau(    5) = (    0.30637    0.30637    0.00000  )
        6     O   15.9990   tau(    6) = (    0.69296    0.69296    0.00000  )

     Computing dynamical matrix for 
                    q = (   0.0000000   0.0000000   0.0000000 )
 
      5 Sym.Ops. (with q -> -q+G )


     G cutoff =  634.4127  (  11237 G-vectors)     FFT grid: ( 54, 54, 36)
     number of k points=    27

     PseudoPot. # 1 for Sn read from file:
     ../../../Pseudo_potentials/Sn_PBE.upf
     MD5 check sum: 78e6386ae56e929f0568ae8bf606a80c
     Pseudo is Norm-conserving + core correction, Zval = 14.0
     Generated using ONCVPSP code by D. R. Hamann
     Using radial grid of 1628 points,  6 beta functions with: 
                l(1) =   0
                l(2) =   0
                l(3) =   1
                l(4) =   1
                l(5) =   2
                l(6) =   2

     PseudoPot. # 2 for O  read from file:
     ../../../Pseudo_potentials/O_PBE.upf
     MD5 check sum: 3e3f909f7470e8921608ab6b1f57bbae
     Pseudo is Norm-conserving + core correction, Zval =  6.0
     Generated using ONCVPSP code by D. R. Hamann
     Using radial grid of  936 points,  5 beta functions with: 
                l(1) =   0
                l(2) =   0
                l(3) =   1
                l(4) =   1
                l(5) =   2

     Mode symmetry, C_2v (mm2)  point group:


     Electric field:
     Dielectric constant
     Born effective charges in two ways 


     Atomic displacements:
     There are  18 irreducible representations

     Representation     1      1 modes -A_1  D_1  S_1  To be done

     Representation     2      1 modes -A_1  D_1  S_1  To be done

     Representation     3      1 modes -A_1  D_1  S_1  To be done

     Representation     4      1 modes -A_1  D_1  S_1  To be done

     Representation     5      1 modes -A_1  D_1  S_1  To be done

     Representation     6      1 modes -A_1  D_1  S_1  To be done

     Representation     7      1 modes -A_2  D_2  S_2  To be done

     Representation     8      1 modes -B_1  D_3  S_3  To be done

     Representation     9      1 modes -B_1  D_3  S_3  To be done

     Representation    10      1 modes -B_1  D_3  S_3  To be done

     Representation    11      1 modes -B_1  D_3  S_3  To be done

     Representation    12      1 modes -B_1  D_3  S_3  To be done

     Representation    13      1 modes -B_1  D_3  S_3  To be done

     Representation    14      1 modes -B_2  D_4  S_4  To be done

     Representation    15      1 modes -B_2  D_4  S_4  To be done

     Representation    16      1 modes -B_2  D_4  S_4  To be done

     Representation    17      1 modes -B_2  D_4  S_4  To be done

     Representation    18      1 modes -B_2  D_4  S_4  To be done



     Alpha used in Ewald sum =   2.7000
     PHONON       :     3.42s CPU         6.29s WALL


     Electric Fields Calculation

      iter #   1 total cpu time :   208.5 secs   av.it.:   7.4
      thresh= 1.000E-02 alpha_mix =  0.700 |ddv_scf|^2 =  5.100E-08

      iter #   2 total cpu time :   286.8 secs   av.it.:  14.1
      thresh= 2.258E-05 alpha_mix =  0.700 |ddv_scf|^2 =  8.052E-08

      iter #   3 total cpu time :   352.6 secs   av.it.:  12.3
      thresh= 2.838E-05 alpha_mix =  0.700 |ddv_scf|^2 =  4.090E-09

      iter #   4 total cpu time :   424.1 secs   av.it.:  13.5
      thresh= 6.395E-06 alpha_mix =  0.700 |ddv_scf|^2 =  1.810E-10

      iter #   5 total cpu time :   494.7 secs   av.it.:  13.7
      thresh= 1.345E-06 alpha_mix =  0.700 |ddv_scf|^2 =  1.828E-11

      iter #   6 total cpu time :   564.7 secs   av.it.:  13.1
      thresh= 4.275E-07 alpha_mix =  0.700 |ddv_scf|^2 =  1.594E-13

      iter #   7 total cpu time :   639.7 secs   av.it.:  14.7
      thresh= 3.993E-08 alpha_mix =  0.700 |ddv_scf|^2 =  5.554E-14

      iter #   8 total cpu time :   711.3 secs   av.it.:  13.8
      thresh= 2.357E-08 alpha_mix =  0.700 |ddv_scf|^2 =  5.050E-16

     End of electric fields calculation

          Dielectric constant in cartesian axis 

          (       5.225934664       0.000000008       0.000000000 )
          (       0.000000008       5.225934664       0.000000000 )
          (       0.000000000       0.000000000       5.222180407 )

          Effective charges (d Force / dE) in cartesian axis

           atom      1   Sn 
      Ex  (        4.17613        0.56722        0.00000 )
      Ey  (        0.56722        4.17613        0.00000 )
      Ez  (        0.00000        0.00000        4.59196 )
           atom      2   Sn 
      Ex  (        4.17613       -0.56722        0.00000 )
      Ey  (       -0.56722        4.17613        0.00000 )
      Ez  (        0.00000        0.00000        4.59196 )
           atom      3   O  
      Ex  (       -2.09462        0.82066       -0.00000 )
      Ey  (        0.82064       -2.09458        0.00000 )
      Ez  (        0.00000        0.00000       -2.31585 )
           atom      4   O  
      Ex  (       -2.09458        0.82064       -0.00000 )
      Ey  (        0.82066       -2.09462        0.00000 )
      Ez  (        0.00000        0.00000       -2.31585 )
           atom      5   O  
      Ex  (       -2.09460       -0.82064        0.00000 )
      Ey  (       -0.82064       -2.09460        0.00000 )
      Ez  (        0.00000        0.00000       -2.31585 )
           atom      6   O  
      Ex  (       -2.09461       -0.82066        0.00000 )
      Ey  (       -0.82066       -2.09461       -0.00000 )
      Ez  (        0.00000        0.00000       -2.31586 )


     Representation #  1 mode #   1

     Self-consistent Calculation

      iter #   1 total cpu time :   760.9 secs   av.it.:   6.8
      thresh= 1.000E-02 alpha_mix =  0.700 |ddv_scf|^2 =  2.768E-06

      iter #   2 total cpu time :   784.2 secs   av.it.:  12.9
      thresh= 1.664E-04 alpha_mix =  0.700 |ddv_scf|^2 =  7.178E-07

      iter #   3 total cpu time :   806.7 secs   av.it.:  12.8
      thresh= 8.473E-05 alpha_mix =  0.700 |ddv_scf|^2 =  2.406E-07

      iter #   4 total cpu time :   827.9 secs   av.it.:  11.9
      thresh= 4.905E-05 alpha_mix =  0.700 |ddv_scf|^2 =  1.007E-08

      iter #   5 total cpu time :   851.3 secs   av.it.:  12.7
      thresh= 1.003E-05 alpha_mix =  0.700 |ddv_scf|^2 =  7.445E-11

      iter #   6 total cpu time :   880.8 secs   av.it.:  13.2
      thresh= 8.628E-07 alpha_mix =  0.700 |ddv_scf|^2 =  3.514E-11

      iter #   7 total cpu time :   903.3 secs   av.it.:  12.8
      thresh= 5.928E-07 alpha_mix =  0.700 |ddv_scf|^2 =  1.602E-11

      iter #   8 total cpu time :   924.7 secs   av.it.:  12.0
      thresh= 4.003E-07 alpha_mix =  0.700 |ddv_scf|^2 =  6.988E-13

      iter #   9 total cpu time :   948.6 secs   av.it.:  12.7
      thresh= 8.360E-08 alpha_mix =  0.700 |ddv_scf|^2 =  2.463E-14

      iter #  10 total cpu time :   971.9 secs   av.it.:  13.4
      thresh= 1.569E-08 alpha_mix =  0.700 |ddv_scf|^2 =  1.226E-14

      iter #  11 total cpu time :   993.6 secs   av.it.:  12.4
      thresh= 1.107E-08 alpha_mix =  0.700 |ddv_scf|^2 =  8.650E-15

     End of self-consistent calculation

     Convergence has been achieved 


     Representation #  2 mode #   2

     Self-consistent Calculation

      iter #   1 total cpu time :  1014.2 secs   av.it.:   7.2
      thresh= 1.000E-02 alpha_mix =  0.700 |ddv_scf|^2 =  9.427E-06

      iter #   2 total cpu time :  1036.9 secs   av.it.:  12.2
      thresh= 3.070E-04 alpha_mix =  0.700 |ddv_scf|^2 =  5.680E-06

      iter #   3 total cpu time :  1057.2 secs   av.it.:  11.4
      thresh= 2.383E-04 alpha_mix =  0.700 |ddv_scf|^2 =  1.445E-07

      iter #   4 total cpu time :  1078.6 secs   av.it.:  12.1
      thresh= 3.801E-05 alpha_mix =  0.700 |ddv_scf|^2 =  5.480E-08

      iter #   5 total cpu time :  1099.4 secs   av.it.:  11.6
      thresh= 2.341E-05 alpha_mix =  0.700 |ddv_scf|^2 =  8.352E-11

      iter #   6 total cpu time :  1121.9 secs   av.it.:  12.9
      thresh= 9.139E-07 alpha_mix =  0.700 |ddv_scf|^2 =  1.293E-11

      iter #   7 total cpu time :  1148.1 secs   av.it.:  13.0
      thresh= 3.596E-07 alpha_mix =  0.700 |ddv_scf|^2 =  1.532E-11

      iter #   8 total cpu time :  1178.5 secs   av.it.:  12.0
      thresh= 3.914E-07 alpha_mix =  0.700 |ddv_scf|^2 =  2.039E-13

      iter #   9 total cpu time :  1203.8 secs   av.it.:  13.1
      thresh= 4.515E-08 alpha_mix =  0.700 |ddv_scf|^2 =  3.473E-14

      iter #  10 total cpu time :  1226.4 secs   av.it.:  12.9
      thresh= 1.864E-08 alpha_mix =  0.700 |ddv_scf|^2 =  2.069E-15

     End of self-consistent calculation

     Convergence has been achieved 


     Representation #  3 mode #   3

     Self-consistent Calculation

      iter #   1 total cpu time :  1243.4 secs   av.it.:   8.3
      thresh= 1.000E-02 alpha_mix =  0.700 |ddv_scf|^2 =  2.413E-05

      iter #   2 total cpu time :  1266.0 secs   av.it.:  12.8
      thresh= 4.912E-04 alpha_mix =  0.700 |ddv_scf|^2 =  2.348E-05

      iter #   3 total cpu time :  1287.4 secs   av.it.:  12.0
      thresh= 4.846E-04 alpha_mix =  0.700 |ddv_scf|^2 =  1.735E-06

      iter #   4 total cpu time :  1308.8 secs   av.it.:  11.9
      thresh= 1.317E-04 alpha_mix =  0.700 |ddv_scf|^2 =  2.373E-09

      iter #   5 total cpu time :  1330.9 secs   av.it.:  12.6
      thresh= 4.871E-06 alpha_mix =  0.700 |ddv_scf|^2 =  5.330E-11

      iter #   6 total cpu time :  1355.7 secs   av.it.:  12.6
      thresh= 7.300E-07 alpha_mix =  0.700 |ddv_scf|^2 =  1.731E-11

      iter #   7 total cpu time :  1381.1 secs   av.it.:  12.4
      thresh= 4.160E-07 alpha_mix =  0.700 |ddv_scf|^2 =  3.168E-13

      iter #   8 total cpu time :  1406.2 secs   av.it.:  13.1
      thresh= 5.628E-08 alpha_mix =  0.700 |ddv_scf|^2 =  1.041E-14

      iter #   9 total cpu time :  1429.0 secs   av.it.:  13.2
      thresh= 1.020E-08 alpha_mix =  0.700 |ddv_scf|^2 =  9.406E-15

     End of self-consistent calculation

     Convergence has been achieved 


     Representation #  4 mode #   4

     Self-consistent Calculation

      iter #   1 total cpu time :  1449.1 secs   av.it.:   7.5
      thresh= 1.000E-02 alpha_mix =  0.700 |ddv_scf|^2 =  6.155E-06

      iter #   2 total cpu time :  1473.3 secs   av.it.:  13.0
      thresh= 2.481E-04 alpha_mix =  0.700 |ddv_scf|^2 =  3.426E-06

      iter #   3 total cpu time :  1495.0 secs   av.it.:  12.2
      thresh= 1.851E-04 alpha_mix =  0.700 |ddv_scf|^2 =  1.689E-07

      iter #   4 total cpu time :  1517.1 secs   av.it.:  12.6
      thresh= 4.110E-05 alpha_mix =  0.700 |ddv_scf|^2 =  3.875E-08

      iter #   5 total cpu time :  1540.4 secs   av.it.:  12.1
      thresh= 1.969E-05 alpha_mix =  0.700 |ddv_scf|^2 =  4.038E-10

      iter #   6 total cpu time :  1563.6 secs   av.it.:  13.1
      thresh= 2.010E-06 alpha_mix =  0.700 |ddv_scf|^2 =  2.821E-10

      iter #   7 total cpu time :  1585.4 secs   av.it.:  12.1
      thresh= 1.680E-06 alpha_mix =  0.700 |ddv_scf|^2 =  8.165E-12

      iter #   8 total cpu time :  1608.4 secs   av.it.:  13.1
      thresh= 2.857E-07 alpha_mix =  0.700 |ddv_scf|^2 =  1.072E-12

      iter #   9 total cpu time :  1631.6 secs   av.it.:  13.3
      thresh= 1.035E-07 alpha_mix =  0.700 |ddv_scf|^2 =  1.433E-13

      iter #  10 total cpu time :  1653.7 secs   av.it.:  12.9
      thresh= 3.785E-08 alpha_mix =  0.700 |ddv_scf|^2 =  7.052E-15

     End of self-consistent calculation

     Convergence has been achieved 


     Representation #  5 mode #   5

     Self-consistent Calculation

      iter #   1 total cpu time :  1669.8 secs   av.it.:   8.1
      thresh= 1.000E-02 alpha_mix =  0.700 |ddv_scf|^2 =  2.058E-05

      iter #   2 total cpu time :  1692.4 secs   av.it.:  12.7
      thresh= 4.537E-04 alpha_mix =  0.700 |ddv_scf|^2 =  1.763E-05

      iter #   3 total cpu time :  1713.7 secs   av.it.:  12.0
      thresh= 4.199E-04 alpha_mix =  0.700 |ddv_scf|^2 =  1.796E-06

      iter #   4 total cpu time :  1735.4 secs   av.it.:  11.9
      thresh= 1.340E-04 alpha_mix =  0.700 |ddv_scf|^2 =  2.403E-09

      iter #   5 total cpu time :  1757.7 secs   av.it.:  12.7
      thresh= 4.902E-06 alpha_mix =  0.700 |ddv_scf|^2 =  1.920E-10

      iter #   6 total cpu time :  1779.2 secs   av.it.:  12.1
      thresh= 1.386E-06 alpha_mix =  0.700 |ddv_scf|^2 =  7.439E-11

      iter #   7 total cpu time :  1800.4 secs   av.it.:  11.9
      thresh= 8.625E-07 alpha_mix =  0.700 |ddv_scf|^2 =  1.341E-12

      iter #   8 total cpu time :  1822.4 secs   av.it.:  12.1
      thresh= 1.158E-07 alpha_mix =  0.700 |ddv_scf|^2 =  1.881E-14

      iter #   9 total cpu time :  1845.0 secs   av.it.:  12.9
      thresh= 1.371E-08 alpha_mix =  0.700 |ddv_scf|^2 =  2.646E-15

     End of self-consistent calculation

     Convergence has been achieved 


     Representation #  6 mode #   6

     Self-consistent Calculation

      iter #   1 total cpu time :  1860.8 secs   av.it.:   7.5
      thresh= 1.000E-02 alpha_mix =  0.700 |ddv_scf|^2 =  6.154E-06

      iter #   2 total cpu time :  1885.2 secs   av.it.:  13.0
      thresh= 2.481E-04 alpha_mix =  0.700 |ddv_scf|^2 =  3.426E-06

      iter #   3 total cpu time :  1906.8 secs   av.it.:  12.2
      thresh= 1.851E-04 alpha_mix =  0.700 |ddv_scf|^2 =  1.689E-07

      iter #   4 total cpu time :  1929.1 secs   av.it.:  12.6
      thresh= 4.110E-05 alpha_mix =  0.700 |ddv_scf|^2 =  3.875E-08

      iter #   5 total cpu time :  1950.6 secs   av.it.:  12.1
      thresh= 1.969E-05 alpha_mix =  0.700 |ddv_scf|^2 =  4.039E-10

      iter #   6 total cpu time :  1974.1 secs   av.it.:  13.1
      thresh= 2.010E-06 alpha_mix =  0.700 |ddv_scf|^2 =  2.821E-10

      iter #   7 total cpu time :  1996.1 secs   av.it.:  12.1
      thresh= 1.680E-06 alpha_mix =  0.700 |ddv_scf|^2 =  8.165E-12

      iter #   8 total cpu time :  2020.4 secs   av.it.:  13.1
      thresh= 2.857E-07 alpha_mix =  0.700 |ddv_scf|^2 =  1.072E-12

      iter #   9 total cpu time :  2044.2 secs   av.it.:  13.3
      thresh= 1.035E-07 alpha_mix =  0.700 |ddv_scf|^2 =  1.432E-13

      iter #  10 total cpu time :  2066.6 secs   av.it.:  12.9
      thresh= 3.785E-08 alpha_mix =  0.700 |ddv_scf|^2 =  7.051E-15

     End of self-consistent calculation

     Convergence has been achieved 


     Representation #  7 mode #   7

     Self-consistent Calculation

      iter #   1 total cpu time :  2083.1 secs   av.it.:   6.5
      thresh= 1.000E-02 alpha_mix =  0.700 |ddv_scf|^2 =  1.410E-06

      iter #   2 total cpu time :  2107.5 secs   av.it.:  12.1
      thresh= 1.187E-04 alpha_mix =  0.700 |ddv_scf|^2 =  1.746E-08

      iter #   3 total cpu time :  2129.6 secs   av.it.:  12.2
      thresh= 1.321E-05 alpha_mix =  0.700 |ddv_scf|^2 =  2.001E-10

      iter #   4 total cpu time :  2151.1 secs   av.it.:  12.2
      thresh= 1.414E-06 alpha_mix =  0.700 |ddv_scf|^2 =  1.698E-12

      iter #   5 total cpu time :  2173.2 secs   av.it.:  12.3
      thresh= 1.303E-07 alpha_mix =  0.700 |ddv_scf|^2 =  9.632E-15

     End of self-consistent calculation

     Convergence has been achieved 


     Representation #  8 mode #   8

     Self-consistent Calculation

      iter #   1 total cpu time :  2188.0 secs   av.it.:   7.0
      thresh= 1.000E-02 alpha_mix =  0.700 |ddv_scf|^2 =  4.906E-06

      iter #   2 total cpu time :  2210.7 secs   av.it.:  12.4
      thresh= 2.215E-04 alpha_mix =  0.700 |ddv_scf|^2 =  6.234E-07

      iter #   3 total cpu time :  2233.4 secs   av.it.:  12.3
      thresh= 7.896E-05 alpha_mix =  0.700 |ddv_scf|^2 =  4.743E-08

      iter #   4 total cpu time :  2254.9 secs   av.it.:  12.0
      thresh= 2.178E-05 alpha_mix =  0.700 |ddv_scf|^2 =  5.737E-09

      iter #   5 total cpu time :  2276.5 secs   av.it.:  12.1
      thresh= 7.574E-06 alpha_mix =  0.700 |ddv_scf|^2 =  1.018E-10

      iter #   6 total cpu time :  2299.5 secs   av.it.:  13.1
      thresh= 1.009E-06 alpha_mix =  0.700 |ddv_scf|^2 =  8.944E-12

      iter #   7 total cpu time :  2322.5 secs   av.it.:  13.0
      thresh= 2.991E-07 alpha_mix =  0.700 |ddv_scf|^2 =  2.052E-13

      iter #   8 total cpu time :  2345.1 secs   av.it.:  12.8
      thresh= 4.530E-08 alpha_mix =  0.700 |ddv_scf|^2 =  7.654E-15

     End of self-consistent calculation

     Convergence has been achieved 


     Representation #  9 mode #   9

     Self-consistent Calculation

      iter #   1 total cpu time :  2361.9 secs   av.it.:   8.3
      thresh= 1.000E-02 alpha_mix =  0.700 |ddv_scf|^2 =  2.413E-05

      iter #   2 total cpu time :  2385.0 secs   av.it.:  12.8
      thresh= 4.912E-04 alpha_mix =  0.700 |ddv_scf|^2 =  2.348E-05

      iter #   3 total cpu time :  2405.9 secs   av.it.:  12.0
      thresh= 4.846E-04 alpha_mix =  0.700 |ddv_scf|^2 =  1.735E-06

      iter #   4 total cpu time :  2427.1 secs   av.it.:  11.9
      thresh= 1.317E-04 alpha_mix =  0.700 |ddv_scf|^2 =  2.373E-09

      iter #   5 total cpu time :  2449.2 secs   av.it.:  12.7
      thresh= 4.871E-06 alpha_mix =  0.700 |ddv_scf|^2 =  5.330E-11

      iter #   6 total cpu time :  2471.0 secs   av.it.:  12.6
      thresh= 7.301E-07 alpha_mix =  0.700 |ddv_scf|^2 =  1.731E-11

      iter #   7 total cpu time :  2492.8 secs   av.it.:  12.5
      thresh= 4.160E-07 alpha_mix =  0.700 |ddv_scf|^2 =  3.164E-13

      iter #   8 total cpu time :  2515.0 secs   av.it.:  12.8
      thresh= 5.625E-08 alpha_mix =  0.700 |ddv_scf|^2 =  8.982E-15

     End of self-consistent calculation

     Convergence has been achieved 


     Representation # 10 mode #  10

     Self-consistent Calculation

      iter #   1 total cpu time :  2531.2 secs   av.it.:   7.0
      thresh= 1.000E-02 alpha_mix =  0.700 |ddv_scf|^2 =  3.913E-06

      iter #   2 total cpu time :  2553.8 secs   av.it.:  12.8
      thresh= 1.978E-04 alpha_mix =  0.700 |ddv_scf|^2 =  6.417E-07

      iter #   3 total cpu time :  2575.8 secs   av.it.:  12.8
      thresh= 8.011E-05 alpha_mix =  0.700 |ddv_scf|^2 =  1.590E-07

      iter #   4 total cpu time :  2596.7 secs   av.it.:  11.9
      thresh= 3.988E-05 alpha_mix =  0.700 |ddv_scf|^2 =  5.937E-09

      iter #   5 total cpu time :  2619.1 secs   av.it.:  12.7
      thresh= 7.705E-06 alpha_mix =  0.700 |ddv_scf|^2 =  1.496E-10

      iter #   6 total cpu time :  2641.9 secs   av.it.:  13.1
      thresh= 1.223E-06 alpha_mix =  0.700 |ddv_scf|^2 =  1.018E-11

      iter #   7 total cpu time :  2664.1 secs   av.it.:  12.7
      thresh= 3.190E-07 alpha_mix =  0.700 |ddv_scf|^2 =  4.058E-13

      iter #   8 total cpu time :  2686.2 secs   av.it.:  12.8
      thresh= 6.370E-08 alpha_mix =  0.700 |ddv_scf|^2 =  6.452E-15

     End of self-consistent calculation

     Convergence has been achieved 


     Representation # 11 mode #  11

     Self-consistent Calculation

      iter #   1 total cpu time :  2702.6 secs   av.it.:   7.3
      thresh= 1.000E-02 alpha_mix =  0.700 |ddv_scf|^2 =  3.039E-06

      iter #   2 total cpu time :  2726.1 secs   av.it.:  13.2
      thresh= 1.743E-04 alpha_mix =  0.700 |ddv_scf|^2 =  1.126E-06

      iter #   3 total cpu time :  2748.4 secs   av.it.:  12.6
      thresh= 1.061E-04 alpha_mix =  0.700 |ddv_scf|^2 =  2.709E-07

      iter #   4 total cpu time :  2769.3 secs   av.it.:  11.7
      thresh= 5.205E-05 alpha_mix =  0.700 |ddv_scf|^2 =  6.906E-09

      iter #   5 total cpu time :  2791.7 secs   av.it.:  12.7
      thresh= 8.311E-06 alpha_mix =  0.700 |ddv_scf|^2 =  6.293E-11

      iter #   6 total cpu time :  2814.9 secs   av.it.:  13.3
      thresh= 7.933E-07 alpha_mix =  0.700 |ddv_scf|^2 =  9.201E-12

      iter #   7 total cpu time :  2837.7 secs   av.it.:  13.0
      thresh= 3.033E-07 alpha_mix =  0.700 |ddv_scf|^2 =  6.184E-13

      iter #   8 total cpu time :  2860.1 secs   av.it.:  12.9
      thresh= 7.864E-08 alpha_mix =  0.700 |ddv_scf|^2 =  1.364E-14

      iter #   9 total cpu time :  2883.5 secs   av.it.:  13.4
      thresh= 1.168E-08 alpha_mix =  0.700 |ddv_scf|^2 =  2.131E-15

     End of self-consistent calculation

     Convergence has been achieved 


     Representation # 12 mode #  12

     Self-consistent Calculation

      iter #   1 total cpu time :  2898.2 secs   av.it.:   7.0
      thresh= 1.000E-02 alpha_mix =  0.700 |ddv_scf|^2 =  3.913E-06

      iter #   2 total cpu time :  2921.1 secs   av.it.:  12.8
      thresh= 1.978E-04 alpha_mix =  0.700 |ddv_scf|^2 =  6.417E-07

      iter #   3 total cpu time :  2943.6 secs   av.it.:  12.8
      thresh= 8.010E-05 alpha_mix =  0.700 |ddv_scf|^2 =  1.590E-07

      iter #   4 total cpu time :  2978.2 secs   av.it.:  11.9
      thresh= 3.988E-05 alpha_mix =  0.700 |ddv_scf|^2 =  5.938E-09

      iter #   5 total cpu time :  3001.4 secs   av.it.:  12.7
      thresh= 7.706E-06 alpha_mix =  0.700 |ddv_scf|^2 =  1.497E-10

      iter #   6 total cpu time :  3024.5 secs   av.it.:  13.1
      thresh= 1.223E-06 alpha_mix =  0.700 |ddv_scf|^2 =  1.018E-11

      iter #   7 total cpu time :  3047.0 secs   av.it.:  12.7
      thresh= 3.190E-07 alpha_mix =  0.700 |ddv_scf|^2 =  4.058E-13

      iter #   8 total cpu time :  3069.2 secs   av.it.:  12.8
      thresh= 6.370E-08 alpha_mix =  0.700 |ddv_scf|^2 =  6.452E-15

     End of self-consistent calculation

     Convergence has been achieved 


     Representation # 13 mode #  13

     Self-consistent Calculation

      iter #   1 total cpu time :  3085.4 secs   av.it.:   8.1
      thresh= 1.000E-02 alpha_mix =  0.700 |ddv_scf|^2 =  2.058E-05

      iter #   2 total cpu time :  3108.7 secs   av.it.:  12.7
      thresh= 4.537E-04 alpha_mix =  0.700 |ddv_scf|^2 =  1.763E-05

      iter #   3 total cpu time :  3130.2 secs   av.it.:  12.0
      thresh= 4.199E-04 alpha_mix =  0.700 |ddv_scf|^2 =  1.796E-06

      iter #   4 total cpu time :  3150.8 secs   av.it.:  11.9
      thresh= 1.340E-04 alpha_mix =  0.700 |ddv_scf|^2 =  2.403E-09

      iter #   5 total cpu time :  3172.8 secs   av.it.:  12.7
      thresh= 4.902E-06 alpha_mix =  0.700 |ddv_scf|^2 =  1.920E-10

      iter #   6 total cpu time :  3194.2 secs   av.it.:  12.1
      thresh= 1.386E-06 alpha_mix =  0.700 |ddv_scf|^2 =  7.440E-11

      iter #   7 total cpu time :  3215.7 secs   av.it.:  11.9
      thresh= 8.625E-07 alpha_mix =  0.700 |ddv_scf|^2 =  1.341E-12

      iter #   8 total cpu time :  3237.1 secs   av.it.:  12.0
      thresh= 1.158E-07 alpha_mix =  0.700 |ddv_scf|^2 =  1.857E-14

      iter #   9 total cpu time :  3258.7 secs   av.it.:  12.5
      thresh= 1.363E-08 alpha_mix =  0.700 |ddv_scf|^2 =  3.003E-16

     End of self-consistent calculation

     Convergence has been achieved 


     Representation # 14 mode #  14

     Self-consistent Calculation

      iter #   1 total cpu time :  3274.7 secs   av.it.:   7.6
      thresh= 1.000E-02 alpha_mix =  0.700 |ddv_scf|^2 =  7.083E-06

      iter #   2 total cpu time :  3297.6 secs   av.it.:  12.6
      thresh= 2.661E-04 alpha_mix =  0.700 |ddv_scf|^2 =  1.332E-06

      iter #   3 total cpu time :  3319.1 secs   av.it.:  12.3
      thresh= 1.154E-04 alpha_mix =  0.700 |ddv_scf|^2 =  4.066E-09

      iter #   4 total cpu time :  3340.9 secs   av.it.:  12.3
      thresh= 6.376E-06 alpha_mix =  0.700 |ddv_scf|^2 =  3.078E-10

      iter #   5 total cpu time :  3362.5 secs   av.it.:  12.3
      thresh= 1.754E-06 alpha_mix =  0.700 |ddv_scf|^2 =  6.362E-12

      iter #   6 total cpu time :  3384.3 secs   av.it.:  12.2
      thresh= 2.522E-07 alpha_mix =  0.700 |ddv_scf|^2 =  1.210E-13

      iter #   7 total cpu time :  3406.2 secs   av.it.:  12.5
      thresh= 3.478E-08 alpha_mix =  0.700 |ddv_scf|^2 =  4.643E-15

     End of self-consistent calculation

     Convergence has been achieved 


     Representation # 15 mode #  15

     Self-consistent Calculation

      iter #   1 total cpu time :  3420.7 secs   av.it.:   6.9
      thresh= 1.000E-02 alpha_mix =  0.700 |ddv_scf|^2 =  2.044E-06

      iter #   2 total cpu time :  3444.0 secs   av.it.:  12.7
      thresh= 1.430E-04 alpha_mix =  0.700 |ddv_scf|^2 =  1.777E-07

      iter #   3 total cpu time :  3466.2 secs   av.it.:  12.5
      thresh= 4.215E-05 alpha_mix =  0.700 |ddv_scf|^2 =  4.435E-09

      iter #   4 total cpu time :  3488.9 secs   av.it.:  12.4
      thresh= 6.660E-06 alpha_mix =  0.700 |ddv_scf|^2 =  5.013E-11

      iter #   5 total cpu time :  3510.6 secs   av.it.:  12.6
      thresh= 7.080E-07 alpha_mix =  0.700 |ddv_scf|^2 =  2.811E-12

      iter #   6 total cpu time :  3531.9 secs   av.it.:  12.2
      thresh= 1.677E-07 alpha_mix =  0.700 |ddv_scf|^2 =  8.861E-14

      iter #   7 total cpu time :  3552.9 secs   av.it.:  12.1
      thresh= 2.977E-08 alpha_mix =  0.700 |ddv_scf|^2 =  7.159E-15

     End of self-consistent calculation

     Convergence has been achieved 


     Representation # 16 mode #  16

     Self-consistent Calculation

      iter #   1 total cpu time :  3571.9 secs   av.it.:   7.0
      thresh= 1.000E-02 alpha_mix =  0.700 |ddv_scf|^2 =  1.727E-06

      iter #   2 total cpu time :  3594.8 secs   av.it.:  13.0
      thresh= 1.314E-04 alpha_mix =  0.700 |ddv_scf|^2 =  9.761E-08

      iter #   3 total cpu time :  3619.1 secs   av.it.:  13.0
      thresh= 3.124E-05 alpha_mix =  0.700 |ddv_scf|^2 =  4.205E-09

      iter #   4 total cpu time :  3641.5 secs   av.it.:  12.6
      thresh= 6.484E-06 alpha_mix =  0.700 |ddv_scf|^2 =  4.978E-11

      iter #   5 total cpu time :  3664.3 secs   av.it.:  12.9
      thresh= 7.056E-07 alpha_mix =  0.700 |ddv_scf|^2 =  1.649E-12

      iter #   6 total cpu time :  3686.4 secs   av.it.:  12.7
      thresh= 1.284E-07 alpha_mix =  0.700 |ddv_scf|^2 =  8.980E-14

      iter #   7 total cpu time :  3709.3 secs   av.it.:  12.7
      thresh= 2.997E-08 alpha_mix =  0.700 |ddv_scf|^2 =  6.695E-15

     End of self-consistent calculation

     Convergence has been achieved 


     Representation # 17 mode #  17

     Self-consistent Calculation

      iter #   1 total cpu time :  3726.4 secs   av.it.:   7.6
      thresh= 1.000E-02 alpha_mix =  0.700 |ddv_scf|^2 =  7.083E-06

      iter #   2 total cpu time :  3748.7 secs   av.it.:  12.6
      thresh= 2.661E-04 alpha_mix =  0.700 |ddv_scf|^2 =  1.332E-06

      iter #   3 total cpu time :  3770.4 secs   av.it.:  12.3
      thresh= 1.154E-04 alpha_mix =  0.700 |ddv_scf|^2 =  4.066E-09

      iter #   4 total cpu time :  3792.4 secs   av.it.:  12.4
      thresh= 6.376E-06 alpha_mix =  0.700 |ddv_scf|^2 =  3.078E-10

      iter #   5 total cpu time :  3814.2 secs   av.it.:  12.3
      thresh= 1.754E-06 alpha_mix =  0.700 |ddv_scf|^2 =  6.362E-12

      iter #   6 total cpu time :  3835.9 secs   av.it.:  12.3
      thresh= 2.522E-07 alpha_mix =  0.700 |ddv_scf|^2 =  1.210E-13

      iter #   7 total cpu time :  3858.0 secs   av.it.:  12.5
      thresh= 3.478E-08 alpha_mix =  0.700 |ddv_scf|^2 =  4.643E-15

     End of self-consistent calculation

     Convergence has been achieved 


     Representation # 18 mode #  18

     Self-consistent Calculation

      iter #   1 total cpu time :  3873.0 secs   av.it.:   7.0
      thresh= 1.000E-02 alpha_mix =  0.700 |ddv_scf|^2 =  1.727E-06

      iter #   2 total cpu time :  3895.8 secs   av.it.:  13.0
      thresh= 1.314E-04 alpha_mix =  0.700 |ddv_scf|^2 =  9.761E-08

      iter #   3 total cpu time :  3918.9 secs   av.it.:  13.0
      thresh= 3.124E-05 alpha_mix =  0.700 |ddv_scf|^2 =  4.205E-09

      iter #   4 total cpu time :  3941.1 secs   av.it.:  12.6
      thresh= 6.484E-06 alpha_mix =  0.700 |ddv_scf|^2 =  4.978E-11

      iter #   5 total cpu time :  3963.9 secs   av.it.:  12.9
      thresh= 7.056E-07 alpha_mix =  0.700 |ddv_scf|^2 =  1.649E-12

      iter #   6 total cpu time :  3986.0 secs   av.it.:  12.7
      thresh= 1.284E-07 alpha_mix =  0.700 |ddv_scf|^2 =  8.980E-14

      iter #   7 total cpu time :  4009.0 secs   av.it.:  12.7
      thresh= 2.997E-08 alpha_mix =  0.700 |ddv_scf|^2 =  6.695E-15

     End of self-consistent calculation

     Convergence has been achieved 
 
     Number of q in the star =    1
     List of q in the star:
          1   0.000000000   0.000000000   0.000000000

          Dielectric constant in cartesian axis 

          (       5.225934664       0.000000008       0.000000000 )
          (       0.000000008       5.225934664       0.000000000 )
          (       0.000000000       0.000000000       5.222180407 )

          Effective charges (d Force / dE) in cartesian axis

           atom      1   Sn 
      Ex  (        4.17613        0.56722        0.00000 )
      Ey  (        0.56722        4.17613        0.00000 )
      Ez  (        0.00000        0.00000        4.59196 )
           atom      2   Sn 
      Ex  (        4.17613       -0.56722        0.00000 )
      Ey  (       -0.56722        4.17613        0.00000 )
      Ez  (        0.00000        0.00000        4.59196 )
           atom      3   O  
      Ex  (       -2.09462        0.82066       -0.00000 )
      Ey  (        0.82064       -2.09458        0.00000 )
      Ez  (        0.00000        0.00000       -2.31585 )
           atom      4   O  
      Ex  (       -2.09458        0.82064       -0.00000 )
      Ey  (        0.82066       -2.09462        0.00000 )
      Ez  (        0.00000        0.00000       -2.31585 )
           atom      5   O  
      Ex  (       -2.09460       -0.82064        0.00000 )
      Ey  (       -0.82064       -2.09460        0.00000 )
      Ez  (        0.00000        0.00000       -2.31585 )
           atom      6   O  
      Ex  (       -2.09461       -0.82066        0.00000 )
      Ey  (       -0.82066       -2.09461       -0.00000 )
      Ez  (        0.00000        0.00000       -2.31586 )

          Effective charges (d P / du) in cartesian axis 

           atom      1   Sn 
      Px  (        4.17596        0.56773        0.00000 )
      Py  (        0.56773        4.17596        0.00000 )
      Pz  (        0.00000        0.00000        4.59211 )
           atom      2   Sn 
      Px  (        4.17597       -0.56774        0.00000 )
      Py  (       -0.56774        4.17597        0.00000 )
      Pz  (        0.00000        0.00000        4.59211 )
           atom      3   O  
      Px  (       -2.09458        0.82066        0.00000 )
      Py  (        0.82063       -2.09468        0.00000 )
      Pz  (        0.00000        0.00000       -2.31554 )
           atom      4   O  
      Px  (       -2.09468        0.82063        0.00000 )
      Py  (        0.82066       -2.09458        0.00000 )
      Pz  (        0.00000        0.00000       -2.31554 )
           atom      5   O  
      Px  (       -2.09452       -0.82079        0.00000 )
      Py  (       -0.82079       -2.09452        0.00000 )
      Pz  (        0.00000        0.00000       -2.31555 )
           atom      6   O  
      Px  (       -2.09450       -0.82077        0.00000 )
      Py  (       -0.82077       -2.09450        0.00000 )
      Pz  (        0.00000        0.00000       -2.31555 )

     Diagonalizing the dynamical matrix

     q = (    0.000000000   0.000000000   0.000000000 ) 

 **************************************************************************
     freq (    1) =      -0.648110 [THz] =     -21.618624 [cm-1]
     freq (    2) =      -0.566856 [THz] =     -18.908292 [cm-1]
     freq (    3) =       0.726576 [THz] =      24.235972 [cm-1]
     freq (    4) =       2.926716 [THz] =      97.624749 [cm-1]
     freq (    5) =       4.238518 [THz] =     141.381756 [cm-1]
     freq (    6) =       6.409140 [THz] =     213.785883 [cm-1]
     freq (    7) =       6.410498 [THz] =     213.831206 [cm-1]
     freq (    8) =       7.795697 [THz] =     260.036445 [cm-1]
     freq (    9) =       7.800464 [THz] =     260.195483 [cm-1]
     freq (   10) =      10.047335 [THz] =     335.143016 [cm-1]
     freq (   11) =      13.090911 [THz] =     436.665788 [cm-1]
     freq (   12) =      13.288380 [THz] =     443.252640 [cm-1]
     freq (   13) =      13.300385 [THz] =     443.653094 [cm-1]
     freq (   14) =      15.968315 [THz] =     532.645643 [cm-1]
     freq (   15) =      16.440277 [THz] =     548.388599 [cm-1]
     freq (   16) =      16.440684 [THz] =     548.402196 [cm-1]
     freq (   17) =      17.501537 [THz] =     583.788432 [cm-1]
     freq (   18) =      21.134741 [THz] =     704.979089 [cm-1]
 **************************************************************************

     Mode symmetry, C_2v (mm2)  point group:

     freq (  1 -  1) =        -21.6  [cm-1]   --> A_1  D_1  S_1   I+R
     freq (  2 -  2) =        -18.9  [cm-1]   --> B_1  D_3  S_3   I+R
     freq (  3 -  3) =         24.2  [cm-1]   --> B_2  D_4  S_4   I+R
     freq (  4 -  4) =         97.6  [cm-1]   --> B_1  D_3  S_3   I+R
     freq (  5 -  5) =        141.4  [cm-1]   --> B_2  D_4  S_4   I+R
     freq (  6 -  6) =        213.8  [cm-1]   --> A_1  D_1  S_1   I+R
     freq (  7 -  7) =        213.8  [cm-1]   --> B_1  D_3  S_3   I+R
     freq (  8 -  8) =        260.0  [cm-1]   --> B_1  D_3  S_3   I+R
     freq (  9 -  9) =        260.2  [cm-1]   --> A_1  D_1  S_1   I+R
     freq ( 10 - 10) =        335.1  [cm-1]   --> B_1  D_3  S_3   I+R
     freq ( 11 - 11) =        436.7  [cm-1]   --> B_2  D_4  S_4   I+R
     freq ( 12 - 12) =        443.3  [cm-1]   --> A_2  D_2  S_2   R  
     freq ( 13 - 13) =        443.7  [cm-1]   --> B_2  D_4  S_4   I+R
     freq ( 14 - 14) =        532.6  [cm-1]   --> B_2  D_4  S_4   I+R
     freq ( 15 - 15) =        548.4  [cm-1]   --> A_1  D_1  S_1   I+R
     freq ( 16 - 16) =        548.4  [cm-1]   --> B_1  D_3  S_3   I+R
     freq ( 17 - 17) =        583.8  [cm-1]   --> A_1  D_1  S_1   I+R
     freq ( 18 - 18) =        705.0  [cm-1]   --> A_1  D_1  S_1   I+R
 
     PHONON       :     1h 3m CPU        1h 6m WALL

     INITIALIZATION: 
     phq_setup    :      0.08s CPU      0.13s WALL (       1 calls)
     phq_init     :      2.22s CPU      2.35s WALL (       1 calls)
 
     phq_init     :      2.22s CPU      2.35s WALL (       1 calls)
     set_drhoc    :      0.92s CPU      0.94s WALL (       3 calls)
     init_vloc    :      0.06s CPU      0.08s WALL (       1 calls)
     init_us_1    :      0.01s CPU      0.01s WALL (       1 calls)
 
     DIELECTRIC CONSTANT AND EFFECTIVE CHARGES:
     solve_e      :    669.91s CPU    705.10s WALL (       1 calls)
     dielec       :      1.50s CPU      1.60s WALL (       1 calls)
     zstar_eu     :     32.45s CPU     34.17s WALL (       1 calls)
 
     DYNAMICAL MATRIX:
     dynmat0      :      1.34s CPU      1.44s WALL (       1 calls)
     phqscf       :   3095.64s CPU   3262.87s WALL (       1 calls)
     dynmatrix    :      0.01s CPU      0.02s WALL (       1 calls)
 
     phqscf       :   3095.64s CPU   3262.87s WALL (       1 calls)
     solve_linter :   3084.41s CPU   3244.75s WALL (      18 calls)
     drhodv       :     10.14s CPU     14.51s WALL (      18 calls)
     add_zstar_ue :      1.00s CPU      1.48s WALL (      18 calls)
 
     dynmat0      :      1.34s CPU      1.44s WALL (       1 calls)
     dynmat_us    :      0.67s CPU      0.71s WALL (       1 calls)
     d2ionq       :      0.03s CPU      0.03s WALL (       1 calls)
     dynmatcc     :      0.64s CPU      0.65s WALL (       1 calls)
 
     dynmat_us    :      0.67s CPU      0.71s WALL (       1 calls)
 
     phqscf       :   3095.64s CPU   3262.87s WALL (       1 calls)
     solve_linter :   3084.41s CPU   3244.75s WALL (      18 calls)
 
     solve_linter :   3084.41s CPU   3244.75s WALL (      18 calls)
     dvqpsi_us    :     58.12s CPU     61.73s WALL (     972 calls)
     ortho        :      8.79s CPU      9.28s WALL (    4752 calls)
     cgsolve      :   3269.13s CPU   3380.54s WALL (    4752 calls)
     incdrhoscf   :    222.25s CPU    229.84s WALL (    4671 calls)
     vpsifft      :    171.08s CPU    191.37s WALL (    3537 calls)
     dv_of_drho   :      2.98s CPU      3.05s WALL (     173 calls)
     mix_pot      :      0.57s CPU     19.14s WALL (     157 calls)
     psymdvscf    :      6.80s CPU      6.94s WALL (     149 calls)
 
     dvqpsi_us    :     58.12s CPU     61.73s WALL (     972 calls)
     dvqpsi_us_on :      5.54s CPU      5.70s WALL (     972 calls)
 
     cgsolve      :   3269.13s CPU   3380.54s WALL (    4752 calls)
     ch_psi       :   3210.23s CPU   3319.86s WALL (   91510 calls)
 
     ch_psi       :   3210.23s CPU   3319.86s WALL (   91510 calls)
     h_psi        :   2906.18s CPU   3007.32s WALL (   91510 calls)
     last         :    289.00s CPU    296.89s WALL (   91510 calls)
 
     h_psi        :   2906.18s CPU   3007.32s WALL (   91510 calls)
     add_vuspsi   :    147.24s CPU    151.20s WALL (   91510 calls)
 
     incdrhoscf   :    222.25s CPU    229.84s WALL (    4671 calls)
 
 
      General routines
     calbec       :    328.33s CPU    339.91s WALL (  185315 calls)
     fft          :     14.51s CPU     19.46s WALL (    7422 calls)
     ffts         :      1.67s CPU      1.78s WALL (    1296 calls)
     fftw         :   2831.88s CPU   2951.91s WALL ( 3686130 calls)
     davcio       :      0.80s CPU     17.45s WALL (   24701 calls)
     write_rec    :      0.98s CPU     14.61s WALL (     175 calls)
 
 
     PHONON       :     1h 3m CPU        1h 6m WALL

 
   This run was terminated on:  19: 5: 1  28Apr2018            

=------------------------------------------------------------------------------=
   JOB DONE.
=------------------------------------------------------------------------------=
