
     Program PHONON v.6.2.2 starts on 28Apr2018 at 19:26:45 

     This program is part of the open-source Quantum ESPRESSO suite
     for quantum simulation of materials; please cite
         "P. Giannozzi et al., J. Phys.:Condens. Matter 21 395502 (2009);
         "P. Giannozzi et al., J. Phys.:Condens. Matter 29 465901 (2017);
          URL http://www.quantum-espresso.org", 
     in publications or presentations arising from this work. More details at
     http://www.quantum-espresso.org/quote

     Parallel version (MPI), running on     4 processors

     MPI processes distributed on     1 nodes
     R & G space division:  proc/nbgrp/npool/nimage =       4

     Reading data from directory:
     ./666.save/

     IMPORTANT: XC functional enforced from input :
     Exchange-correlation      = PBE ( 1  4  3  4 0 0)
     Any further DFT definition will be discarded
     Please, verify this is what you really want

 
     Parallelization info
     --------------------
     sticks:   dense  smooth     PW     G-vecs:    dense   smooth      PW
     Min         500     500    147                11236    11236    1788
     Max         501     501    149                11237    11237    1789
     Sum        2001    2001    593                44945    44945    7155
 

     Check: negative/imaginary core charge=   -0.000002    0.000000


     Dynamical matrices for ( 1, 1, 1)  uniform grid of q-points
     (   1 q-points):
       N         xq(1)         xq(2)         xq(3) 
       1   0.000000000   0.000000000   0.000000000

     Calculation of q =    0.0000000   0.0000000   0.0000000

     Phonon dispersions for SnO2                                                

     bravais-lattice index     =            6
     lattice parameter (alat)  =       9.1370  a.u.
     unit-cell volume          =     512.3005 (a.u.)^3
     number of atoms/cell      =            6
     number of atomic types    =            2
     kinetic-energy cut-off    =      75.0000  Ry
     charge density cut-off    =     300.0000  Ry
     convergence threshold     =      1.0E-14
     beta                      =       0.7000
     number of iterations used =            4
     Exchange-correlation      = PBE ( 1  4  3  4 0 0)


     celldm(1)=    9.13703  celldm(2)=    1.00000  celldm(3)=    0.67160
     celldm(4)=    0.00000  celldm(5)=    0.00000  celldm(6)=    0.00000

     crystal axes: (cart. coord. in units of alat)
               a(1) = (  1.0000  0.0000  0.0000 )  
               a(2) = (  0.0000  1.0000  0.0000 )  
               a(3) = (  0.0000  0.0000  0.6716 )  

     reciprocal axes: (cart. coord. in units 2 pi/alat)
               b(1) = (  1.0000  0.0000  0.0000 )  
               b(2) = (  0.0000  1.0000  0.0000 )  
               b(3) = (  0.0000  0.0000  1.4890 )  


     Atoms inside the unit cell: 

     Cartesian axes

     site n.  atom      mass           positions (alat units)
        1     Sn 118.7100   tau(    1) = (   -0.00033   -0.00033    0.00000  )
        2     Sn 118.7100   tau(    2) = (    0.49967    0.49967    0.33580  )
        3     O   15.9990   tau(    3) = (    0.80637    0.19296    0.33580  )
        4     O   15.9990   tau(    4) = (    0.19296    0.80637    0.33580  )
        5     O   15.9990   tau(    5) = (    0.30637    0.30637    0.00000  )
        6     O   15.9990   tau(    6) = (    0.69296    0.69296    0.00000  )

     Computing dynamical matrix for 
                    q = (   0.0000000   0.0000000   0.0000000 )
 
      5 Sym.Ops. (with q -> -q+G )


     G cutoff =  634.4127  (  11237 G-vectors)     FFT grid: ( 54, 54, 36)
     number of k points=    52

     PseudoPot. # 1 for Sn read from file:
     ../../../Pseudo_potentials/Sn_PBE.upf
     MD5 check sum: 78e6386ae56e929f0568ae8bf606a80c
     Pseudo is Norm-conserving + core correction, Zval = 14.0
     Generated using ONCVPSP code by D. R. Hamann
     Using radial grid of 1628 points,  6 beta functions with: 
                l(1) =   0
                l(2) =   0
                l(3) =   1
                l(4) =   1
                l(5) =   2
                l(6) =   2

     PseudoPot. # 2 for O  read from file:
     ../../../Pseudo_potentials/O_PBE.upf
     MD5 check sum: 3e3f909f7470e8921608ab6b1f57bbae
     Pseudo is Norm-conserving + core correction, Zval =  6.0
     Generated using ONCVPSP code by D. R. Hamann
     Using radial grid of  936 points,  5 beta functions with: 
                l(1) =   0
                l(2) =   0
                l(3) =   1
                l(4) =   1
                l(5) =   2

     Mode symmetry, C_2v (mm2)  point group:


     Electric field:
     Dielectric constant
     Born effective charges in two ways 


     Atomic displacements:
     There are  18 irreducible representations

     Representation     1      1 modes -A_1  D_1  S_1  To be done

     Representation     2      1 modes -A_1  D_1  S_1  To be done

     Representation     3      1 modes -A_1  D_1  S_1  To be done

     Representation     4      1 modes -A_1  D_1  S_1  To be done

     Representation     5      1 modes -A_1  D_1  S_1  To be done

     Representation     6      1 modes -A_1  D_1  S_1  To be done

     Representation     7      1 modes -A_2  D_2  S_2  To be done

     Representation     8      1 modes -B_1  D_3  S_3  To be done

     Representation     9      1 modes -B_1  D_3  S_3  To be done

     Representation    10      1 modes -B_1  D_3  S_3  To be done

     Representation    11      1 modes -B_1  D_3  S_3  To be done

     Representation    12      1 modes -B_1  D_3  S_3  To be done

     Representation    13      1 modes -B_1  D_3  S_3  To be done

     Representation    14      1 modes -B_2  D_4  S_4  To be done

     Representation    15      1 modes -B_2  D_4  S_4  To be done

     Representation    16      1 modes -B_2  D_4  S_4  To be done

     Representation    17      1 modes -B_2  D_4  S_4  To be done

     Representation    18      1 modes -B_2  D_4  S_4  To be done



     Alpha used in Ewald sum =   2.7000
     PHONON       :     4.60s CPU         8.50s WALL


     Electric Fields Calculation

      iter #   1 total cpu time :   404.2 secs   av.it.:   7.4
      thresh= 1.000E-02 alpha_mix =  0.700 |ddv_scf|^2 =  5.003E-08

      iter #   2 total cpu time :   546.4 secs   av.it.:  14.0
      thresh= 2.237E-05 alpha_mix =  0.700 |ddv_scf|^2 =  7.831E-08

      iter #   3 total cpu time :   673.0 secs   av.it.:  12.2
      thresh= 2.798E-05 alpha_mix =  0.700 |ddv_scf|^2 =  4.104E-09

      iter #   4 total cpu time :   809.4 secs   av.it.:  13.3
      thresh= 6.407E-06 alpha_mix =  0.700 |ddv_scf|^2 =  1.773E-10

      iter #   5 total cpu time :   946.9 secs   av.it.:  13.6
      thresh= 1.331E-06 alpha_mix =  0.700 |ddv_scf|^2 =  1.785E-11

      iter #   6 total cpu time :  1086.6 secs   av.it.:  13.0
      thresh= 4.225E-07 alpha_mix =  0.700 |ddv_scf|^2 =  1.623E-13

      iter #   7 total cpu time :  1238.6 secs   av.it.:  14.5
      thresh= 4.029E-08 alpha_mix =  0.700 |ddv_scf|^2 =  5.361E-14

      iter #   8 total cpu time :  1378.9 secs   av.it.:  13.6
      thresh= 2.315E-08 alpha_mix =  0.700 |ddv_scf|^2 =  4.820E-16

     End of electric fields calculation

          Dielectric constant in cartesian axis 

          (       5.009163092       0.000000013       0.000000000 )
          (       0.000000013       5.009163092       0.000000000 )
          (       0.000000000       0.000000000       5.150111111 )

          Effective charges (d Force / dE) in cartesian axis

           atom      1   Sn 
      Ex  (        4.18113        0.56398        0.00000 )
      Ey  (        0.56398        4.18113        0.00000 )
      Ez  (        0.00000        0.00000        4.59422 )
           atom      2   Sn 
      Ex  (        4.18113       -0.56398       -0.00000 )
      Ey  (       -0.56398        4.18113        0.00000 )
      Ez  (        0.00000        0.00000        4.59422 )
           atom      3   O  
      Ex  (       -2.09281        0.80753        0.00000 )
      Ey  (        0.80752       -2.09277        0.00000 )
      Ez  (        0.00000        0.00000       -2.30415 )
           atom      4   O  
      Ex  (       -2.09277        0.80752       -0.00000 )
      Ey  (        0.80753       -2.09281        0.00000 )
      Ez  (        0.00000        0.00000       -2.30415 )
           atom      5   O  
      Ex  (       -2.09279       -0.80752        0.00000 )
      Ey  (       -0.80752       -2.09279       -0.00000 )
      Ez  (        0.00000        0.00000       -2.30415 )
           atom      6   O  
      Ex  (       -2.09280       -0.80753        0.00000 )
      Ey  (       -0.80753       -2.09280        0.00000 )
      Ez  (        0.00000        0.00000       -2.30415 )


     Representation #  1 mode #   1

     Self-consistent Calculation

      iter #   1 total cpu time :  1479.7 secs   av.it.:   6.8
      thresh= 1.000E-02 alpha_mix =  0.700 |ddv_scf|^2 =  2.767E-06

      iter #   2 total cpu time :  1526.5 secs   av.it.:  12.5
      thresh= 1.663E-04 alpha_mix =  0.700 |ddv_scf|^2 =  7.180E-07

      iter #   3 total cpu time :  1593.8 secs   av.it.:  12.5
      thresh= 8.473E-05 alpha_mix =  0.700 |ddv_scf|^2 =  2.415E-07

      iter #   4 total cpu time :  1634.7 secs   av.it.:  11.7
      thresh= 4.914E-05 alpha_mix =  0.700 |ddv_scf|^2 =  1.011E-08

      iter #   5 total cpu time :  1678.4 secs   av.it.:  12.5
      thresh= 1.005E-05 alpha_mix =  0.700 |ddv_scf|^2 =  7.458E-11

      iter #   6 total cpu time :  1723.6 secs   av.it.:  13.3
      thresh= 8.636E-07 alpha_mix =  0.700 |ddv_scf|^2 =  3.581E-11

      iter #   7 total cpu time :  1766.7 secs   av.it.:  12.5
      thresh= 5.984E-07 alpha_mix =  0.700 |ddv_scf|^2 =  1.601E-11

      iter #   8 total cpu time :  1809.8 secs   av.it.:  11.9
      thresh= 4.002E-07 alpha_mix =  0.700 |ddv_scf|^2 =  6.992E-13

      iter #   9 total cpu time :  1853.0 secs   av.it.:  12.5
      thresh= 8.362E-08 alpha_mix =  0.700 |ddv_scf|^2 =  2.479E-14

      iter #  10 total cpu time :  1898.5 secs   av.it.:  13.2
      thresh= 1.575E-08 alpha_mix =  0.700 |ddv_scf|^2 =  1.220E-14

      iter #  11 total cpu time :  1940.4 secs   av.it.:  12.2
      thresh= 1.104E-08 alpha_mix =  0.700 |ddv_scf|^2 =  8.744E-15

     End of self-consistent calculation

     Convergence has been achieved 


     Representation #  2 mode #   2

     Self-consistent Calculation

      iter #   1 total cpu time :  1969.9 secs   av.it.:   7.1
      thresh= 1.000E-02 alpha_mix =  0.700 |ddv_scf|^2 =  9.426E-06

      iter #   2 total cpu time :  2013.4 secs   av.it.:  12.2
      thresh= 3.070E-04 alpha_mix =  0.700 |ddv_scf|^2 =  5.680E-06

      iter #   3 total cpu time :  2053.0 secs   av.it.:  11.4
      thresh= 2.383E-04 alpha_mix =  0.700 |ddv_scf|^2 =  1.453E-07

      iter #   4 total cpu time :  2093.6 secs   av.it.:  11.9
      thresh= 3.812E-05 alpha_mix =  0.700 |ddv_scf|^2 =  5.495E-08

      iter #   5 total cpu time :  2133.5 secs   av.it.:  11.5
      thresh= 2.344E-05 alpha_mix =  0.700 |ddv_scf|^2 =  8.361E-11

      iter #   6 total cpu time :  2176.7 secs   av.it.:  12.8
      thresh= 9.144E-07 alpha_mix =  0.700 |ddv_scf|^2 =  1.297E-11

      iter #   7 total cpu time :  2223.1 secs   av.it.:  12.8
      thresh= 3.601E-07 alpha_mix =  0.700 |ddv_scf|^2 =  1.536E-11

      iter #   8 total cpu time :  2287.0 secs   av.it.:  11.9
      thresh= 3.919E-07 alpha_mix =  0.700 |ddv_scf|^2 =  2.061E-13

      iter #   9 total cpu time :  2331.2 secs   av.it.:  13.0
      thresh= 4.540E-08 alpha_mix =  0.700 |ddv_scf|^2 =  3.475E-14

      iter #  10 total cpu time :  2374.6 secs   av.it.:  12.6
      thresh= 1.864E-08 alpha_mix =  0.700 |ddv_scf|^2 =  2.092E-15

     End of self-consistent calculation

     Convergence has been achieved 


     Representation #  3 mode #   3

     Self-consistent Calculation

      iter #   1 total cpu time :  2406.6 secs   av.it.:   8.2
      thresh= 1.000E-02 alpha_mix =  0.700 |ddv_scf|^2 =  2.414E-05

      iter #   2 total cpu time :  2450.8 secs   av.it.:  12.8
      thresh= 4.913E-04 alpha_mix =  0.700 |ddv_scf|^2 =  2.355E-05

      iter #   3 total cpu time :  2493.4 secs   av.it.:  11.9
      thresh= 4.853E-04 alpha_mix =  0.700 |ddv_scf|^2 =  1.743E-06

      iter #   4 total cpu time :  2534.3 secs   av.it.:  11.8
      thresh= 1.320E-04 alpha_mix =  0.700 |ddv_scf|^2 =  2.386E-09

      iter #   5 total cpu time :  2577.4 secs   av.it.:  12.4
      thresh= 4.885E-06 alpha_mix =  0.700 |ddv_scf|^2 =  5.316E-11

      iter #   6 total cpu time :  2620.8 secs   av.it.:  12.5
      thresh= 7.291E-07 alpha_mix =  0.700 |ddv_scf|^2 =  1.731E-11

      iter #   7 total cpu time :  2662.7 secs   av.it.:  12.2
      thresh= 4.161E-07 alpha_mix =  0.700 |ddv_scf|^2 =  3.176E-13

      iter #   8 total cpu time :  2706.9 secs   av.it.:  12.9
      thresh= 5.635E-08 alpha_mix =  0.700 |ddv_scf|^2 =  1.042E-14

      iter #   9 total cpu time :  2751.7 secs   av.it.:  13.2
      thresh= 1.021E-08 alpha_mix =  0.700 |ddv_scf|^2 =  9.461E-15

     End of self-consistent calculation

     Convergence has been achieved 


     Representation #  4 mode #   4

     Self-consistent Calculation

      iter #   1 total cpu time :  2781.3 secs   av.it.:   7.4
      thresh= 1.000E-02 alpha_mix =  0.700 |ddv_scf|^2 =  6.155E-06

      iter #   2 total cpu time :  2827.0 secs   av.it.:  12.8
      thresh= 2.481E-04 alpha_mix =  0.700 |ddv_scf|^2 =  3.428E-06

      iter #   3 total cpu time :  2869.2 secs   av.it.:  12.2
      thresh= 1.852E-04 alpha_mix =  0.700 |ddv_scf|^2 =  1.698E-07

      iter #   4 total cpu time :  2910.7 secs   av.it.:  12.4
      thresh= 4.120E-05 alpha_mix =  0.700 |ddv_scf|^2 =  3.882E-08

      iter #   5 total cpu time :  2951.9 secs   av.it.:  12.0
      thresh= 1.970E-05 alpha_mix =  0.700 |ddv_scf|^2 =  4.068E-10

      iter #   6 total cpu time :  2996.1 secs   av.it.:  13.1
      thresh= 2.017E-06 alpha_mix =  0.700 |ddv_scf|^2 =  2.834E-10

      iter #   7 total cpu time :  3037.9 secs   av.it.:  12.0
      thresh= 1.684E-06 alpha_mix =  0.700 |ddv_scf|^2 =  8.147E-12

      iter #   8 total cpu time :  3081.7 secs   av.it.:  13.0
      thresh= 2.854E-07 alpha_mix =  0.700 |ddv_scf|^2 =  1.074E-12

      iter #   9 total cpu time :  3126.2 secs   av.it.:  13.4
      thresh= 1.036E-07 alpha_mix =  0.700 |ddv_scf|^2 =  1.437E-13

      iter #  10 total cpu time :  3169.3 secs   av.it.:  12.5
      thresh= 3.791E-08 alpha_mix =  0.700 |ddv_scf|^2 =  7.205E-15

     End of self-consistent calculation

     Convergence has been achieved 


     Representation #  5 mode #   5

     Self-consistent Calculation

      iter #   1 total cpu time :  3200.1 secs   av.it.:   8.0
      thresh= 1.000E-02 alpha_mix =  0.700 |ddv_scf|^2 =  2.059E-05

      iter #   2 total cpu time :  3242.8 secs   av.it.:  12.6
      thresh= 4.538E-04 alpha_mix =  0.700 |ddv_scf|^2 =  1.768E-05

      iter #   3 total cpu time :  3283.7 secs   av.it.:  12.0
      thresh= 4.204E-04 alpha_mix =  0.700 |ddv_scf|^2 =  1.804E-06

      iter #   4 total cpu time :  3324.3 secs   av.it.:  11.8
      thresh= 1.343E-04 alpha_mix =  0.700 |ddv_scf|^2 =  2.404E-09

      iter #   5 total cpu time :  3366.4 secs   av.it.:  12.4
      thresh= 4.903E-06 alpha_mix =  0.700 |ddv_scf|^2 =  1.922E-10

      iter #   6 total cpu time :  3407.5 secs   av.it.:  12.1
      thresh= 1.386E-06 alpha_mix =  0.700 |ddv_scf|^2 =  7.459E-11

      iter #   7 total cpu time :  3447.8 secs   av.it.:  11.8
      thresh= 8.637E-07 alpha_mix =  0.700 |ddv_scf|^2 =  1.339E-12

      iter #   8 total cpu time :  3489.7 secs   av.it.:  12.0
      thresh= 1.157E-07 alpha_mix =  0.700 |ddv_scf|^2 =  1.886E-14

      iter #   9 total cpu time :  3535.6 secs   av.it.:  12.8
      thresh= 1.373E-08 alpha_mix =  0.700 |ddv_scf|^2 =  3.345E-15

     End of self-consistent calculation

     Convergence has been achieved 


     Representation #  6 mode #   6

     Self-consistent Calculation

      iter #   1 total cpu time :  3564.8 secs   av.it.:   7.4
      thresh= 1.000E-02 alpha_mix =  0.700 |ddv_scf|^2 =  6.155E-06

      iter #   2 total cpu time :  3608.9 secs   av.it.:  12.8
      thresh= 2.481E-04 alpha_mix =  0.700 |ddv_scf|^2 =  3.428E-06

      iter #   3 total cpu time :  3653.8 secs   av.it.:  12.2
      thresh= 1.852E-04 alpha_mix =  0.700 |ddv_scf|^2 =  1.698E-07

      iter #   4 total cpu time :  3696.3 secs   av.it.:  12.4
      thresh= 4.120E-05 alpha_mix =  0.700 |ddv_scf|^2 =  3.882E-08

      iter #   5 total cpu time :  3737.3 secs   av.it.:  12.0
      thresh= 1.970E-05 alpha_mix =  0.700 |ddv_scf|^2 =  4.068E-10

      iter #   6 total cpu time :  3780.9 secs   av.it.:  13.1
      thresh= 2.017E-06 alpha_mix =  0.700 |ddv_scf|^2 =  2.834E-10

      iter #   7 total cpu time :  3822.2 secs   av.it.:  12.0
      thresh= 1.683E-06 alpha_mix =  0.700 |ddv_scf|^2 =  8.146E-12

      iter #   8 total cpu time :  3865.9 secs   av.it.:  13.0
      thresh= 2.854E-07 alpha_mix =  0.700 |ddv_scf|^2 =  1.074E-12

      iter #   9 total cpu time :  3910.1 secs   av.it.:  13.4
      thresh= 1.036E-07 alpha_mix =  0.700 |ddv_scf|^2 =  1.437E-13

      iter #  10 total cpu time :  3954.2 secs   av.it.:  12.5
      thresh= 3.791E-08 alpha_mix =  0.700 |ddv_scf|^2 =  7.205E-15

     End of self-consistent calculation

     Convergence has been achieved 


     Representation #  7 mode #   7

     Self-consistent Calculation

      iter #   1 total cpu time :  3983.5 secs   av.it.:   6.4
      thresh= 1.000E-02 alpha_mix =  0.700 |ddv_scf|^2 =  1.410E-06

      iter #   2 total cpu time :  4025.5 secs   av.it.:  11.9
      thresh= 1.187E-04 alpha_mix =  0.700 |ddv_scf|^2 =  1.741E-08

      iter #   3 total cpu time :  4066.6 secs   av.it.:  12.1
      thresh= 1.319E-05 alpha_mix =  0.700 |ddv_scf|^2 =  1.998E-10

      iter #   4 total cpu time :  4107.5 secs   av.it.:  12.0
      thresh= 1.413E-06 alpha_mix =  0.700 |ddv_scf|^2 =  1.694E-12

      iter #   5 total cpu time :  4148.8 secs   av.it.:  12.1
      thresh= 1.301E-07 alpha_mix =  0.700 |ddv_scf|^2 =  9.578E-15

     End of self-consistent calculation

     Convergence has been achieved 


     Representation #  8 mode #   8

     Self-consistent Calculation

      iter #   1 total cpu time :  4176.8 secs   av.it.:   6.9
      thresh= 1.000E-02 alpha_mix =  0.700 |ddv_scf|^2 =  4.905E-06

      iter #   2 total cpu time :  4220.4 secs   av.it.:  12.4
      thresh= 2.215E-04 alpha_mix =  0.700 |ddv_scf|^2 =  6.238E-07

      iter #   3 total cpu time :  4262.6 secs   av.it.:  12.4
      thresh= 7.898E-05 alpha_mix =  0.700 |ddv_scf|^2 =  4.791E-08

      iter #   4 total cpu time :  4304.5 secs   av.it.:  11.9
      thresh= 2.189E-05 alpha_mix =  0.700 |ddv_scf|^2 =  5.783E-09

      iter #   5 total cpu time :  4345.9 secs   av.it.:  12.1
      thresh= 7.604E-06 alpha_mix =  0.700 |ddv_scf|^2 =  1.017E-10

      iter #   6 total cpu time :  4390.3 secs   av.it.:  13.0
      thresh= 1.009E-06 alpha_mix =  0.700 |ddv_scf|^2 =  8.978E-12

      iter #   7 total cpu time :  4433.7 secs   av.it.:  12.8
      thresh= 2.996E-07 alpha_mix =  0.700 |ddv_scf|^2 =  2.026E-13

      iter #   8 total cpu time :  4476.4 secs   av.it.:  12.5
      thresh= 4.501E-08 alpha_mix =  0.700 |ddv_scf|^2 =  7.619E-15

     End of self-consistent calculation

     Convergence has been achieved 


     Representation #  9 mode #   9

     Self-consistent Calculation

      iter #   1 total cpu time :  4507.9 secs   av.it.:   8.2
      thresh= 1.000E-02 alpha_mix =  0.700 |ddv_scf|^2 =  2.414E-05

      iter #   2 total cpu time :  4551.5 secs   av.it.:  12.8
      thresh= 4.913E-04 alpha_mix =  0.700 |ddv_scf|^2 =  2.355E-05

      iter #   3 total cpu time :  4592.4 secs   av.it.:  11.9
      thresh= 4.853E-04 alpha_mix =  0.700 |ddv_scf|^2 =  1.743E-06

      iter #   4 total cpu time :  4632.7 secs   av.it.:  11.8
      thresh= 1.320E-04 alpha_mix =  0.700 |ddv_scf|^2 =  2.386E-09

      iter #   5 total cpu time :  4674.9 secs   av.it.:  12.5
      thresh= 4.885E-06 alpha_mix =  0.700 |ddv_scf|^2 =  5.316E-11

      iter #   6 total cpu time :  4717.1 secs   av.it.:  12.5
      thresh= 7.291E-07 alpha_mix =  0.700 |ddv_scf|^2 =  1.731E-11

      iter #   7 total cpu time :  4759.8 secs   av.it.:  12.2
      thresh= 4.161E-07 alpha_mix =  0.700 |ddv_scf|^2 =  3.173E-13

      iter #   8 total cpu time :  4802.5 secs   av.it.:  12.7
      thresh= 5.633E-08 alpha_mix =  0.700 |ddv_scf|^2 =  8.979E-15

     End of self-consistent calculation

     Convergence has been achieved 


     Representation # 10 mode #  10

     Self-consistent Calculation

      iter #   1 total cpu time :  4830.7 secs   av.it.:   6.9
      thresh= 1.000E-02 alpha_mix =  0.700 |ddv_scf|^2 =  3.912E-06

      iter #   2 total cpu time :  4873.2 secs   av.it.:  12.5
      thresh= 1.978E-04 alpha_mix =  0.700 |ddv_scf|^2 =  6.417E-07

      iter #   3 total cpu time :  4916.5 secs   av.it.:  12.5
      thresh= 8.011E-05 alpha_mix =  0.700 |ddv_scf|^2 =  1.594E-07

      iter #   4 total cpu time :  4960.5 secs   av.it.:  11.8
      thresh= 3.993E-05 alpha_mix =  0.700 |ddv_scf|^2 =  5.974E-09

      iter #   5 total cpu time :  5006.2 secs   av.it.:  12.4
      thresh= 7.729E-06 alpha_mix =  0.700 |ddv_scf|^2 =  1.501E-10

      iter #   6 total cpu time :  5052.8 secs   av.it.:  12.9
      thresh= 1.225E-06 alpha_mix =  0.700 |ddv_scf|^2 =  1.021E-11

      iter #   7 total cpu time :  5095.7 secs   av.it.:  12.5
      thresh= 3.196E-07 alpha_mix =  0.700 |ddv_scf|^2 =  4.050E-13

      iter #   8 total cpu time :  5137.3 secs   av.it.:  12.5
      thresh= 6.364E-08 alpha_mix =  0.700 |ddv_scf|^2 =  6.448E-15

     End of self-consistent calculation

     Convergence has been achieved 


     Representation # 11 mode #  11

     Self-consistent Calculation

      iter #   1 total cpu time :  5165.0 secs   av.it.:   7.2
      thresh= 1.000E-02 alpha_mix =  0.700 |ddv_scf|^2 =  3.039E-06

      iter #   2 total cpu time :  5208.5 secs   av.it.:  13.1
      thresh= 1.743E-04 alpha_mix =  0.700 |ddv_scf|^2 =  1.128E-06

      iter #   3 total cpu time :  5251.9 secs   av.it.:  12.4
      thresh= 1.062E-04 alpha_mix =  0.700 |ddv_scf|^2 =  2.724E-07

      iter #   4 total cpu time :  5292.1 secs   av.it.:  11.5
      thresh= 5.220E-05 alpha_mix =  0.700 |ddv_scf|^2 =  6.912E-09

      iter #   5 total cpu time :  5334.7 secs   av.it.:  12.5
      thresh= 8.314E-06 alpha_mix =  0.700 |ddv_scf|^2 =  6.292E-11

      iter #   6 total cpu time :  5378.8 secs   av.it.:  13.2
      thresh= 7.932E-07 alpha_mix =  0.700 |ddv_scf|^2 =  9.213E-12

      iter #   7 total cpu time :  5422.4 secs   av.it.:  12.8
      thresh= 3.035E-07 alpha_mix =  0.700 |ddv_scf|^2 =  6.190E-13

      iter #   8 total cpu time :  5466.1 secs   av.it.:  12.5
      thresh= 7.868E-08 alpha_mix =  0.700 |ddv_scf|^2 =  1.374E-14

      iter #   9 total cpu time :  5514.4 secs   av.it.:  13.3
      thresh= 1.172E-08 alpha_mix =  0.700 |ddv_scf|^2 =  2.127E-15

     End of self-consistent calculation

     Convergence has been achieved 


     Representation # 12 mode #  12

     Self-consistent Calculation

      iter #   1 total cpu time :  5543.4 secs   av.it.:   6.9
      thresh= 1.000E-02 alpha_mix =  0.700 |ddv_scf|^2 =  3.912E-06

      iter #   2 total cpu time :  5591.2 secs   av.it.:  12.5
      thresh= 1.978E-04 alpha_mix =  0.700 |ddv_scf|^2 =  6.417E-07

      iter #   3 total cpu time :  5636.4 secs   av.it.:  12.5
      thresh= 8.010E-05 alpha_mix =  0.700 |ddv_scf|^2 =  1.594E-07

      iter #   4 total cpu time :  5677.1 secs   av.it.:  11.8
      thresh= 3.993E-05 alpha_mix =  0.700 |ddv_scf|^2 =  5.975E-09

      iter #   5 total cpu time :  5720.6 secs   av.it.:  12.4
      thresh= 7.730E-06 alpha_mix =  0.700 |ddv_scf|^2 =  1.501E-10

      iter #   6 total cpu time :  5764.5 secs   av.it.:  12.9
      thresh= 1.225E-06 alpha_mix =  0.700 |ddv_scf|^2 =  1.021E-11

      iter #   7 total cpu time :  5806.1 secs   av.it.:  12.5
      thresh= 3.195E-07 alpha_mix =  0.700 |ddv_scf|^2 =  4.050E-13

      iter #   8 total cpu time :  5848.1 secs   av.it.:  12.5
      thresh= 6.364E-08 alpha_mix =  0.700 |ddv_scf|^2 =  6.448E-15

     End of self-consistent calculation

     Convergence has been achieved 


     Representation # 13 mode #  13

     Self-consistent Calculation

      iter #   1 total cpu time :  5880.9 secs   av.it.:   8.0
      thresh= 1.000E-02 alpha_mix =  0.700 |ddv_scf|^2 =  2.059E-05

      iter #   2 total cpu time :  5923.9 secs   av.it.:  12.6
      thresh= 4.538E-04 alpha_mix =  0.700 |ddv_scf|^2 =  1.768E-05

      iter #   3 total cpu time :  5964.6 secs   av.it.:  11.9
      thresh= 4.204E-04 alpha_mix =  0.700 |ddv_scf|^2 =  1.804E-06

      iter #   4 total cpu time :  6004.5 secs   av.it.:  11.8
      thresh= 1.343E-04 alpha_mix =  0.700 |ddv_scf|^2 =  2.404E-09

      iter #   5 total cpu time :  6047.3 secs   av.it.:  12.4
      thresh= 4.903E-06 alpha_mix =  0.700 |ddv_scf|^2 =  1.922E-10

      iter #   6 total cpu time :  6088.8 secs   av.it.:  12.1
      thresh= 1.386E-06 alpha_mix =  0.700 |ddv_scf|^2 =  7.459E-11

      iter #   7 total cpu time :  6132.0 secs   av.it.:  11.8
      thresh= 8.636E-07 alpha_mix =  0.700 |ddv_scf|^2 =  1.339E-12

      iter #   8 total cpu time :  6175.8 secs   av.it.:  12.0
      thresh= 1.157E-07 alpha_mix =  0.700 |ddv_scf|^2 =  1.855E-14

      iter #   9 total cpu time :  6220.6 secs   av.it.:  12.3
      thresh= 1.362E-08 alpha_mix =  0.700 |ddv_scf|^2 =  2.934E-16

     End of self-consistent calculation

     Convergence has been achieved 


     Representation # 14 mode #  14

     Self-consistent Calculation

      iter #   1 total cpu time :  6250.2 secs   av.it.:   7.6
      thresh= 1.000E-02 alpha_mix =  0.700 |ddv_scf|^2 =  7.083E-06

      iter #   2 total cpu time :  6293.4 secs   av.it.:  12.6
      thresh= 2.661E-04 alpha_mix =  0.700 |ddv_scf|^2 =  1.332E-06

      iter #   3 total cpu time :  6334.3 secs   av.it.:  12.1
      thresh= 1.154E-04 alpha_mix =  0.700 |ddv_scf|^2 =  4.068E-09

      iter #   4 total cpu time :  6375.6 secs   av.it.:  12.4
      thresh= 6.378E-06 alpha_mix =  0.700 |ddv_scf|^2 =  3.079E-10

      iter #   5 total cpu time :  6417.9 secs   av.it.:  12.4
      thresh= 1.755E-06 alpha_mix =  0.700 |ddv_scf|^2 =  6.368E-12

      iter #   6 total cpu time :  6459.2 secs   av.it.:  12.2
      thresh= 2.524E-07 alpha_mix =  0.700 |ddv_scf|^2 =  1.213E-13

      iter #   7 total cpu time :  6502.1 secs   av.it.:  12.4
      thresh= 3.482E-08 alpha_mix =  0.700 |ddv_scf|^2 =  4.657E-15

     End of self-consistent calculation

     Convergence has been achieved 


     Representation # 15 mode #  15

     Self-consistent Calculation

      iter #   1 total cpu time :  6530.3 secs   av.it.:   6.9
      thresh= 1.000E-02 alpha_mix =  0.700 |ddv_scf|^2 =  2.044E-06

      iter #   2 total cpu time :  6574.8 secs   av.it.:  12.7
      thresh= 1.430E-04 alpha_mix =  0.700 |ddv_scf|^2 =  1.777E-07

      iter #   3 total cpu time :  6617.3 secs   av.it.:  12.5
      thresh= 4.216E-05 alpha_mix =  0.700 |ddv_scf|^2 =  4.437E-09

      iter #   4 total cpu time :  6662.5 secs   av.it.:  12.4
      thresh= 6.661E-06 alpha_mix =  0.700 |ddv_scf|^2 =  5.014E-11

      iter #   5 total cpu time :  6705.9 secs   av.it.:  12.5
      thresh= 7.081E-07 alpha_mix =  0.700 |ddv_scf|^2 =  2.813E-12

      iter #   6 total cpu time :  6746.9 secs   av.it.:  12.2
      thresh= 1.677E-07 alpha_mix =  0.700 |ddv_scf|^2 =  8.864E-14

      iter #   7 total cpu time :  6786.8 secs   av.it.:  11.9
      thresh= 2.977E-08 alpha_mix =  0.700 |ddv_scf|^2 =  7.160E-15

     End of self-consistent calculation

     Convergence has been achieved 


     Representation # 16 mode #  16

     Self-consistent Calculation

      iter #   1 total cpu time :  6814.5 secs   av.it.:   6.9
      thresh= 1.000E-02 alpha_mix =  0.700 |ddv_scf|^2 =  1.727E-06

      iter #   2 total cpu time :  6857.4 secs   av.it.:  12.9
      thresh= 1.314E-04 alpha_mix =  0.700 |ddv_scf|^2 =  9.761E-08

      iter #   3 total cpu time :  6903.8 secs   av.it.:  13.0
      thresh= 3.124E-05 alpha_mix =  0.700 |ddv_scf|^2 =  4.209E-09

      iter #   4 total cpu time :  6946.1 secs   av.it.:  12.6
      thresh= 6.487E-06 alpha_mix =  0.700 |ddv_scf|^2 =  4.976E-11

      iter #   5 total cpu time :  6993.2 secs   av.it.:  12.8
      thresh= 7.054E-07 alpha_mix =  0.700 |ddv_scf|^2 =  1.650E-12

      iter #   6 total cpu time :  7036.8 secs   av.it.:  12.6
      thresh= 1.285E-07 alpha_mix =  0.700 |ddv_scf|^2 =  8.967E-14

      iter #   7 total cpu time :  7078.8 secs   av.it.:  12.6
      thresh= 2.995E-08 alpha_mix =  0.700 |ddv_scf|^2 =  6.689E-15

     End of self-consistent calculation

     Convergence has been achieved 


     Representation # 17 mode #  17

     Self-consistent Calculation

      iter #   1 total cpu time :  7108.3 secs   av.it.:   7.6
      thresh= 1.000E-02 alpha_mix =  0.700 |ddv_scf|^2 =  7.083E-06

      iter #   2 total cpu time :  7152.5 secs   av.it.:  12.6
      thresh= 2.661E-04 alpha_mix =  0.700 |ddv_scf|^2 =  1.332E-06

      iter #   3 total cpu time :  7193.8 secs   av.it.:  12.1
      thresh= 1.154E-04 alpha_mix =  0.700 |ddv_scf|^2 =  4.068E-09

      iter #   4 total cpu time :  7238.6 secs   av.it.:  12.4
      thresh= 6.378E-06 alpha_mix =  0.700 |ddv_scf|^2 =  3.079E-10

      iter #   5 total cpu time :  7282.9 secs   av.it.:  12.4
      thresh= 1.755E-06 alpha_mix =  0.700 |ddv_scf|^2 =  6.368E-12

      iter #   6 total cpu time :  7328.4 secs   av.it.:  12.2
      thresh= 2.524E-07 alpha_mix =  0.700 |ddv_scf|^2 =  1.212E-13

      iter #   7 total cpu time :  7373.0 secs   av.it.:  12.5
      thresh= 3.482E-08 alpha_mix =  0.700 |ddv_scf|^2 =  4.657E-15

     End of self-consistent calculation

     Convergence has been achieved 


     Representation # 18 mode #  18

     Self-consistent Calculation

      iter #   1 total cpu time :  7400.1 secs   av.it.:   6.9
      thresh= 1.000E-02 alpha_mix =  0.700 |ddv_scf|^2 =  1.727E-06

      iter #   2 total cpu time :  7443.7 secs   av.it.:  12.9
      thresh= 1.314E-04 alpha_mix =  0.700 |ddv_scf|^2 =  9.761E-08

      iter #   3 total cpu time :  7487.4 secs   av.it.:  13.0
      thresh= 3.124E-05 alpha_mix =  0.700 |ddv_scf|^2 =  4.209E-09

      iter #   4 total cpu time :  7531.1 secs   av.it.:  12.6
      thresh= 6.487E-06 alpha_mix =  0.700 |ddv_scf|^2 =  4.976E-11

      iter #   5 total cpu time :  7577.1 secs   av.it.:  12.8
      thresh= 7.054E-07 alpha_mix =  0.700 |ddv_scf|^2 =  1.650E-12

      iter #   6 total cpu time :  7619.2 secs   av.it.:  12.6
      thresh= 1.285E-07 alpha_mix =  0.700 |ddv_scf|^2 =  8.967E-14

      iter #   7 total cpu time :  7661.2 secs   av.it.:  12.6
      thresh= 2.995E-08 alpha_mix =  0.700 |ddv_scf|^2 =  6.689E-15

     End of self-consistent calculation

     Convergence has been achieved 
 
     Number of q in the star =    1
     List of q in the star:
          1   0.000000000   0.000000000   0.000000000

          Dielectric constant in cartesian axis 

          (       5.009163092       0.000000013       0.000000000 )
          (       0.000000013       5.009163092       0.000000000 )
          (       0.000000000       0.000000000       5.150111111 )

          Effective charges (d Force / dE) in cartesian axis

           atom      1   Sn 
      Ex  (        4.18113        0.56398        0.00000 )
      Ey  (        0.56398        4.18113        0.00000 )
      Ez  (        0.00000        0.00000        4.59422 )
           atom      2   Sn 
      Ex  (        4.18113       -0.56398       -0.00000 )
      Ey  (       -0.56398        4.18113        0.00000 )
      Ez  (        0.00000        0.00000        4.59422 )
           atom      3   O  
      Ex  (       -2.09281        0.80753        0.00000 )
      Ey  (        0.80752       -2.09277        0.00000 )
      Ez  (        0.00000        0.00000       -2.30415 )
           atom      4   O  
      Ex  (       -2.09277        0.80752       -0.00000 )
      Ey  (        0.80753       -2.09281        0.00000 )
      Ez  (        0.00000        0.00000       -2.30415 )
           atom      5   O  
      Ex  (       -2.09279       -0.80752        0.00000 )
      Ey  (       -0.80752       -2.09279       -0.00000 )
      Ez  (        0.00000        0.00000       -2.30415 )
           atom      6   O  
      Ex  (       -2.09280       -0.80753        0.00000 )
      Ey  (       -0.80753       -2.09280        0.00000 )
      Ez  (        0.00000        0.00000       -2.30415 )

          Effective charges (d P / du) in cartesian axis 

           atom      1   Sn 
      Px  (        4.18094        0.56448        0.00000 )
      Py  (        0.56448        4.18094        0.00000 )
      Pz  (        0.00000        0.00000        4.59438 )
           atom      2   Sn 
      Px  (        4.18095       -0.56449        0.00000 )
      Py  (       -0.56449        4.18095        0.00000 )
      Pz  (        0.00000       -0.00000        4.59438 )
           atom      3   O  
      Px  (       -2.09276        0.80754        0.00000 )
      Py  (        0.80751       -2.09286        0.00000 )
      Pz  (        0.00000        0.00000       -2.30384 )
           atom      4   O  
      Px  (       -2.09286        0.80751        0.00000 )
      Py  (        0.80754       -2.09276        0.00000 )
      Pz  (        0.00000        0.00000       -2.30384 )
           atom      5   O  
      Px  (       -2.09270       -0.80767        0.00000 )
      Py  (       -0.80767       -2.09270        0.00000 )
      Pz  (        0.00000        0.00000       -2.30384 )
           atom      6   O  
      Px  (       -2.09268       -0.80765        0.00000 )
      Py  (       -0.80765       -2.09268        0.00000 )
      Pz  (        0.00000        0.00000       -2.30385 )

     Diagonalizing the dynamical matrix

     q = (    0.000000000   0.000000000   0.000000000 ) 

 **************************************************************************
     freq (    1) =      -0.647862 [THz] =     -21.610350 [cm-1]
     freq (    2) =      -0.566277 [THz] =     -18.888974 [cm-1]
     freq (    3) =       0.727073 [THz] =      24.252554 [cm-1]
     freq (    4) =       2.952478 [THz] =      98.484064 [cm-1]
     freq (    5) =       4.238485 [THz] =     141.380636 [cm-1]
     freq (    6) =       6.412202 [THz] =     213.888052 [cm-1]
     freq (    7) =       6.413519 [THz] =     213.931952 [cm-1]
     freq (    8) =       7.795068 [THz] =     260.015495 [cm-1]
     freq (    9) =       7.799898 [THz] =     260.176575 [cm-1]
     freq (   10) =      10.044575 [THz] =     335.050963 [cm-1]
     freq (   11) =      13.091224 [THz] =     436.676223 [cm-1]
     freq (   12) =      13.288939 [THz] =     443.271280 [cm-1]
     freq (   13) =      13.301284 [THz] =     443.683091 [cm-1]
     freq (   14) =      15.970458 [THz] =     532.717144 [cm-1]
     freq (   15) =      16.441470 [THz] =     548.428410 [cm-1]
     freq (   16) =      16.441847 [THz] =     548.440985 [cm-1]
     freq (   17) =      17.499698 [THz] =     583.727084 [cm-1]
     freq (   18) =      21.133596 [THz] =     704.940890 [cm-1]
 **************************************************************************

     Mode symmetry, C_2v (mm2)  point group:

     freq (  1 -  1) =        -21.6  [cm-1]   --> A_1  D_1  S_1   I+R
     freq (  2 -  2) =        -18.9  [cm-1]   --> B_1  D_3  S_3   I+R
     freq (  3 -  3) =         24.3  [cm-1]   --> B_2  D_4  S_4   I+R
     freq (  4 -  4) =         98.5  [cm-1]   --> B_1  D_3  S_3   I+R
     freq (  5 -  5) =        141.4  [cm-1]   --> B_2  D_4  S_4   I+R
     freq (  6 -  6) =        213.9  [cm-1]   --> A_1  D_1  S_1   I+R
     freq (  7 -  7) =        213.9  [cm-1]   --> B_1  D_3  S_3   I+R
     freq (  8 -  8) =        260.0  [cm-1]   --> B_1  D_3  S_3   I+R
     freq (  9 -  9) =        260.2  [cm-1]   --> A_1  D_1  S_1   I+R
     freq ( 10 - 10) =        335.1  [cm-1]   --> B_1  D_3  S_3   I+R
     freq ( 11 - 11) =        436.7  [cm-1]   --> B_2  D_4  S_4   I+R
     freq ( 12 - 12) =        443.3  [cm-1]   --> A_2  D_2  S_2   R  
     freq ( 13 - 13) =        443.7  [cm-1]   --> B_2  D_4  S_4   I+R
     freq ( 14 - 14) =        532.7  [cm-1]   --> B_2  D_4  S_4   I+R
     freq ( 15 - 15) =        548.4  [cm-1]   --> A_1  D_1  S_1   I+R
     freq ( 16 - 16) =        548.4  [cm-1]   --> B_1  D_3  S_3   I+R
     freq ( 17 - 17) =        583.7  [cm-1]   --> A_1  D_1  S_1   I+R
     freq ( 18 - 18) =        704.9  [cm-1]   --> A_1  D_1  S_1   I+R
 
     PHONON       :     2h 1m CPU        2h 7m WALL

     INITIALIZATION: 
     phq_setup    :      0.08s CPU      0.15s WALL (       1 calls)
     phq_init     :      3.18s CPU      3.34s WALL (       1 calls)
 
     phq_init     :      3.18s CPU      3.34s WALL (       1 calls)
     set_drhoc    :      0.91s CPU      0.94s WALL (       3 calls)
     init_vloc    :      0.07s CPU      0.07s WALL (       1 calls)
     init_us_1    :      0.01s CPU      0.01s WALL (       1 calls)
 
     DIELECTRIC CONSTANT AND EFFECTIVE CHARGES:
     solve_e      :   1319.58s CPU   1370.55s WALL (       1 calls)
     dielec       :      0.15s CPU      2.83s WALL (       1 calls)
     zstar_eu     :     67.55s CPU     71.45s WALL (       1 calls)
 
     DYNAMICAL MATRIX:
     dynmat0      :      1.97s CPU      2.08s WALL (       1 calls)
     phqscf       :   5906.12s CPU   6209.35s WALL (       1 calls)
     dynmatrix    :      0.01s CPU      0.04s WALL (       1 calls)
 
     phqscf       :   5906.12s CPU   6209.35s WALL (       1 calls)
     solve_linter :   5891.23s CPU   6191.41s WALL (      18 calls)
     drhodv       :     11.79s CPU     12.36s WALL (      18 calls)
     add_zstar_ue :      1.94s CPU      2.94s WALL (      18 calls)
 
     dynmat0      :      1.97s CPU      2.08s WALL (       1 calls)
     dynmat_us    :      1.29s CPU      1.35s WALL (       1 calls)
     d2ionq       :      0.03s CPU      0.03s WALL (       1 calls)
     dynmatcc     :      0.64s CPU      0.66s WALL (       1 calls)
 
     dynmat_us    :      1.29s CPU      1.35s WALL (       1 calls)
 
     phqscf       :   5906.12s CPU   6209.35s WALL (       1 calls)
     solve_linter :   5891.23s CPU   6191.41s WALL (      18 calls)
 
     solve_linter :   5891.23s CPU   6191.41s WALL (      18 calls)
     dvqpsi_us    :    115.25s CPU    121.32s WALL (    1872 calls)
     ortho        :     17.47s CPU     18.50s WALL (    9152 calls)
     cgsolve      :   6277.13s CPU   6489.93s WALL (    9152 calls)
     incdrhoscf   :    450.13s CPU    468.33s WALL (    8996 calls)
     vpsifft      :    325.43s CPU    358.91s WALL (    6812 calls)
     dv_of_drho   :      3.00s CPU      3.09s WALL (     173 calls)
     mix_pot      :      0.66s CPU     18.54s WALL (     157 calls)
     psymdvscf    :      6.84s CPU      6.99s WALL (     149 calls)
 
     dvqpsi_us    :    115.25s CPU    121.32s WALL (    1872 calls)
     dvqpsi_us_on :     10.91s CPU     11.03s WALL (    1872 calls)
 
     cgsolve      :   6277.13s CPU   6489.93s WALL (    9152 calls)
     ch_psi       :   6161.65s CPU   6370.27s WALL (  169875 calls)
 
     ch_psi       :   6161.65s CPU   6370.27s WALL (  169875 calls)
     h_psi        :   5581.23s CPU   5773.37s WALL (  169875 calls)
     last         :    550.95s CPU    565.85s WALL (  169875 calls)
 
     h_psi        :   5581.23s CPU   5773.37s WALL (  169875 calls)
     add_vuspsi   :    282.63s CPU    290.11s WALL (  169875 calls)
 
     incdrhoscf   :    450.13s CPU    468.33s WALL (    8996 calls)
 
 
      General routines
     calbec       :    618.42s CPU    634.81s WALL (  344170 calls)
     fft          :     17.94s CPU     19.78s WALL (   11922 calls)
     ffts         :      2.80s CPU      2.93s WALL (    2196 calls)
     fftw         :   5472.55s CPU   5693.04s WALL ( 7034014 calls)
     davcio       :      1.61s CPU     53.46s WALL (   46426 calls)
     write_rec    :      1.12s CPU     14.62s WALL (     175 calls)
 
 
     PHONON       :     2h 1m CPU        2h 7m WALL

 
   This run was terminated on:  21:34:29  28Apr2018            

=------------------------------------------------------------------------------=
   JOB DONE.
=------------------------------------------------------------------------------=
