
     Program PWSCF v.6.2.2 starts on 29Apr2018 at  1: 4:59 

     This program is part of the open-source Quantum ESPRESSO suite
     for quantum simulation of materials; please cite
         "P. Giannozzi et al., J. Phys.:Condens. Matter 21 395502 (2009);
         "P. Giannozzi et al., J. Phys.:Condens. Matter 29 465901 (2017);
          URL http://www.quantum-espresso.org", 
     in publications or presentations arising from this work. More details at
     http://www.quantum-espresso.org/quote

     Parallel version (MPI), running on     2 processors

     MPI processes distributed on     1 nodes
     R & G space division:  proc/nbgrp/npool/nimage =       2
     Waiting for input...
     Reading input from standard input
Warning: card  &IONS ignored
Warning: card  / ignored
Warning: card  &CELL ignored
Warning: card  / ignored

     Current dimensions of program PWSCF are:
     Max number of different atomic species (ntypx) = 10
     Max number of k-points (npk) =  40000
     Max angular momentum in pseudopotentials (lmaxx) =  3

     Subspace diagonalization in iterative solution of the eigenvalue problem:
     a serial algorithm will be used

 
     Parallelization info
     --------------------
     sticks:   dense  smooth     PW     G-vecs:    dense   smooth      PW
     Min        1000    1000    296                22472    22472    3577
     Max        1001    1001    297                22473    22473    3578
     Sum        2001    2001    593                44945    44945    7155
 


     bravais-lattice index     =            6
     lattice parameter (alat)  =       9.1370  a.u.
     unit-cell volume          =     512.3005 (a.u.)^3
     number of atoms/cell      =            6
     number of atomic types    =            2
     number of electrons       =        52.00
     number of Kohn-Sham states=           26
     kinetic-energy cutoff     =      75.0000  Ry
     charge density cutoff     =     300.0000  Ry
     convergence threshold     =      1.0E-20
     mixing beta               =       0.7000
     number of iterations used =            8  plain     mixing
     Exchange-correlation      = PBE ( 1  4  3  4 0 0)

     celldm(1)=   9.137033  celldm(2)=   0.000000  celldm(3)=   0.671598
     celldm(4)=   0.000000  celldm(5)=   0.000000  celldm(6)=   0.000000

     crystal axes: (cart. coord. in units of alat)
               a(1) = (   1.000000   0.000000   0.000000 )  
               a(2) = (   0.000000   1.000000   0.000000 )  
               a(3) = (   0.000000   0.000000   0.671598 )  

     reciprocal axes: (cart. coord. in units 2 pi/alat)
               b(1) = (  1.000000  0.000000  0.000000 )  
               b(2) = (  0.000000  1.000000  0.000000 )  
               b(3) = (  0.000000  0.000000  1.488987 )  


     PseudoPot. # 1 for Sn read from file:
     ../../../Pseudo_potentials/Sn_PBE.upf
     MD5 check sum: 78e6386ae56e929f0568ae8bf606a80c
     Pseudo is Norm-conserving + core correction, Zval = 14.0
     Generated using ONCVPSP code by D. R. Hamann
     Using radial grid of 1628 points,  6 beta functions with: 
                l(1) =   0
                l(2) =   0
                l(3) =   1
                l(4) =   1
                l(5) =   2
                l(6) =   2

     PseudoPot. # 2 for O  read from file:
     ../../../Pseudo_potentials/O_PBE.upf
     MD5 check sum: 3e3f909f7470e8921608ab6b1f57bbae
     Pseudo is Norm-conserving + core correction, Zval =  6.0
     Generated using ONCVPSP code by D. R. Hamann
     Using radial grid of  936 points,  5 beta functions with: 
                l(1) =   0
                l(2) =   0
                l(3) =   1
                l(4) =   1
                l(5) =   2

     atomic species   valence    mass     pseudopotential
        Sn            14.00   118.71000     Sn( 1.00)
        O              6.00    15.99900     O ( 1.00)

      4 Sym. Ops. (no inversion) found



   Cartesian axes

     site n.     atom                  positions (alat units)
         1           Sn  tau(   1) = (  -0.0003320  -0.0003320   0.0000000  )
         2           Sn  tau(   2) = (   0.4996675   0.4996675   0.3357989  )
         3           O   tau(   3) = (   0.8063692   0.1929618   0.3357989  )
         4           O   tau(   4) = (   0.1929618   0.8063692   0.3357989  )
         5           O   tau(   5) = (   0.3063705   0.3063705   0.0000000  )
         6           O   tau(   6) = (   0.6929630   0.6929630   0.0000000  )

     number of k points=   105

     Number of k-points >= 100: set verbosity='high' to print them.

     Dense  grid:    44945 G-vectors     FFT dimensions: (  54,  54,  36)

     Estimated max dynamical RAM per process >     149.02 MB

     Estimated total dynamical RAM >     298.04 MB

     Check: negative/imaginary core charge=   -0.000002    0.000000

     Initial potential from superposition of free atoms

     starting charge   51.99690, renormalised to   52.00000
     Starting wfc are   34 randomized atomic wfcs

     total cpu time spent up to now is       10.4 secs

     Self-consistent Calculation

     iteration #  1     ecut=    75.00 Ry     beta= 0.70
     Davidson diagonalization with overlap
     ethr =  1.00E-02,  avg # of iterations =  2.0

     total cpu time spent up to now is       31.2 secs

     total energy              =    -446.84466900 Ry
     Harris-Foulkes estimate   =    -448.02990005 Ry
     estimated scf accuracy    <       1.60747199 Ry

     iteration #  2     ecut=    75.00 Ry     beta= 0.70
     Davidson diagonalization with overlap
     ethr =  3.09E-03,  avg # of iterations =  3.1

     total cpu time spent up to now is       56.8 secs

     total energy              =    -447.25423940 Ry
     Harris-Foulkes estimate   =    -448.07192866 Ry
     estimated scf accuracy    <       1.69270973 Ry

     iteration #  3     ecut=    75.00 Ry     beta= 0.70
     Davidson diagonalization with overlap
     ethr =  3.09E-03,  avg # of iterations =  3.0

     total cpu time spent up to now is       80.9 secs

     total energy              =    -447.58608406 Ry
     Harris-Foulkes estimate   =    -447.58679376 Ry
     estimated scf accuracy    <       0.00622044 Ry

     iteration #  4     ecut=    75.00 Ry     beta= 0.70
     Davidson diagonalization with overlap
     ethr =  1.20E-05,  avg # of iterations =  3.0

     total cpu time spent up to now is      107.6 secs

     total energy              =    -447.58909564 Ry
     Harris-Foulkes estimate   =    -447.58935966 Ry
     estimated scf accuracy    <       0.00055534 Ry

     iteration #  5     ecut=    75.00 Ry     beta= 0.70
     Davidson diagonalization with overlap
     ethr =  1.07E-06,  avg # of iterations =  2.1

     total cpu time spent up to now is      127.1 secs

     total energy              =    -447.58912892 Ry
     Harris-Foulkes estimate   =    -447.58914052 Ry
     estimated scf accuracy    <       0.00003497 Ry

     iteration #  6     ecut=    75.00 Ry     beta= 0.70
     Davidson diagonalization with overlap
     ethr =  6.72E-08,  avg # of iterations =  3.8

     total cpu time spent up to now is      155.8 secs

     total energy              =    -447.58914222 Ry
     Harris-Foulkes estimate   =    -447.58914482 Ry
     estimated scf accuracy    <       0.00000701 Ry

     iteration #  7     ecut=    75.00 Ry     beta= 0.70
     Davidson diagonalization with overlap
     ethr =  1.35E-08,  avg # of iterations =  3.1

     total cpu time spent up to now is      179.5 secs

     total energy              =    -447.58931435 Ry
     Harris-Foulkes estimate   =    -447.58931500 Ry
     estimated scf accuracy    <       0.00000215 Ry

     iteration #  8     ecut=    75.00 Ry     beta= 0.70
     Davidson diagonalization with overlap
     ethr =  4.13E-09,  avg # of iterations =  3.0

     total cpu time spent up to now is      203.2 secs

     total energy              =    -447.58931458 Ry
     Harris-Foulkes estimate   =    -447.58931480 Ry
     estimated scf accuracy    <       0.00000058 Ry

     iteration #  9     ecut=    75.00 Ry     beta= 0.70
     Davidson diagonalization with overlap
     ethr =  1.11E-09,  avg # of iterations =  2.1

     total cpu time spent up to now is      225.2 secs

     total energy              =    -447.58931460 Ry
     Harris-Foulkes estimate   =    -447.58931464 Ry
     estimated scf accuracy    <       0.00000009 Ry

     iteration # 10     ecut=    75.00 Ry     beta= 0.70
     Davidson diagonalization with overlap
     ethr =  1.73E-10,  avg # of iterations =  3.0

     total cpu time spent up to now is      248.9 secs

     total energy              =    -447.58931462 Ry
     Harris-Foulkes estimate   =    -447.58931462 Ry
     estimated scf accuracy    <       0.00000001 Ry

     iteration # 11     ecut=    75.00 Ry     beta= 0.70
     Davidson diagonalization with overlap
     ethr =  2.25E-11,  avg # of iterations =  3.0

     total cpu time spent up to now is      272.3 secs

     total energy              =    -447.58931462 Ry
     Harris-Foulkes estimate   =    -447.58931462 Ry
     estimated scf accuracy    <          3.9E-10 Ry

     iteration # 12     ecut=    75.00 Ry     beta= 0.70
     Davidson diagonalization with overlap
     ethr =  7.49E-13,  avg # of iterations =  2.8

     total cpu time spent up to now is      297.2 secs

     total energy              =    -447.58931462 Ry
     Harris-Foulkes estimate   =    -447.58931462 Ry
     estimated scf accuracy    <          3.6E-11 Ry

     iteration # 13     ecut=    75.00 Ry     beta= 0.70
     Davidson diagonalization with overlap
     ethr =  1.00E-13,  avg # of iterations =  3.2

     total cpu time spent up to now is      321.4 secs

     total energy              =    -447.58931462 Ry
     Harris-Foulkes estimate   =    -447.58931462 Ry
     estimated scf accuracy    <          5.5E-12 Ry

     iteration # 14     ecut=    75.00 Ry     beta= 0.70
     Davidson diagonalization with overlap
     ethr =  1.00E-13,  avg # of iterations =  1.0

     total cpu time spent up to now is      339.7 secs

     total energy              =    -447.58931462 Ry
     Harris-Foulkes estimate   =    -447.58931462 Ry
     estimated scf accuracy    <          2.4E-13 Ry

     iteration # 15     ecut=    75.00 Ry     beta= 0.70
     Davidson diagonalization with overlap
     ethr =  1.00E-13,  avg # of iterations =  1.0

     total cpu time spent up to now is      358.1 secs

     total energy              =    -447.58931462 Ry
     Harris-Foulkes estimate   =    -447.58931462 Ry
     estimated scf accuracy    <          2.1E-14 Ry

     iteration # 16     ecut=    75.00 Ry     beta= 0.70
     Davidson diagonalization with overlap
     ethr =  1.00E-13,  avg # of iterations =  1.0

     total cpu time spent up to now is      376.5 secs

     total energy              =    -447.58931462 Ry
     Harris-Foulkes estimate   =    -447.58931462 Ry
     estimated scf accuracy    <          5.1E-14 Ry

     iteration # 17     ecut=    75.00 Ry     beta= 0.70
     Davidson diagonalization with overlap
     ethr =  1.00E-13,  avg # of iterations =  1.0

     total cpu time spent up to now is      395.1 secs

     total energy              =    -447.58931462 Ry
     Harris-Foulkes estimate   =    -447.58931462 Ry
     estimated scf accuracy    <          3.7E-14 Ry

     iteration # 18     ecut=    75.00 Ry     beta= 0.70
     Davidson diagonalization with overlap
     ethr =  1.00E-13,  avg # of iterations =  1.0

     total cpu time spent up to now is      413.9 secs

     total energy              =    -447.58931462 Ry
     Harris-Foulkes estimate   =    -447.58931462 Ry
     estimated scf accuracy    <          5.4E-14 Ry

     iteration # 19     ecut=    75.00 Ry     beta= 0.70
     Davidson diagonalization with overlap
     ethr =  1.00E-13,  avg # of iterations =  1.0

     total cpu time spent up to now is      433.0 secs

     total energy              =    -447.58931462 Ry
     Harris-Foulkes estimate   =    -447.58931462 Ry
     estimated scf accuracy    <          6.5E-14 Ry

     iteration # 20     ecut=    75.00 Ry     beta= 0.70
     Davidson diagonalization with overlap
     ethr =  1.00E-13,  avg # of iterations =  1.0

     total cpu time spent up to now is      452.1 secs

     total energy              =    -447.58931462 Ry
     Harris-Foulkes estimate   =    -447.58931462 Ry
     estimated scf accuracy    <          6.1E-14 Ry

     iteration # 21     ecut=    75.00 Ry     beta= 0.70
     Davidson diagonalization with overlap
     ethr =  1.00E-13,  avg # of iterations =  1.0

     total cpu time spent up to now is      471.2 secs

     total energy              =    -447.58931462 Ry
     Harris-Foulkes estimate   =    -447.58931462 Ry
     estimated scf accuracy    <          3.8E-14 Ry

     iteration # 22     ecut=    75.00 Ry     beta= 0.70
     Davidson diagonalization with overlap
     ethr =  1.00E-13,  avg # of iterations =  1.0

     total cpu time spent up to now is      490.2 secs

     total energy              =    -447.58931462 Ry
     Harris-Foulkes estimate   =    -447.58931462 Ry
     estimated scf accuracy    <          6.4E-15 Ry

     iteration # 23     ecut=    75.00 Ry     beta= 0.70
     Davidson diagonalization with overlap
     ethr =  1.00E-13,  avg # of iterations =  1.0

     total cpu time spent up to now is      509.4 secs

     total energy              =    -447.58931462 Ry
     Harris-Foulkes estimate   =    -447.58931462 Ry
     estimated scf accuracy    <          4.1E-15 Ry

     iteration # 24     ecut=    75.00 Ry     beta= 0.70
     Davidson diagonalization with overlap
     ethr =  1.00E-13,  avg # of iterations =  1.0

     total cpu time spent up to now is      528.5 secs

     total energy              =    -447.58931462 Ry
     Harris-Foulkes estimate   =    -447.58931462 Ry
     estimated scf accuracy    <          2.2E-15 Ry

     iteration # 25     ecut=    75.00 Ry     beta= 0.70
     Davidson diagonalization with overlap
     ethr =  1.00E-13,  avg # of iterations =  1.0

     total cpu time spent up to now is      547.7 secs

     total energy              =    -447.58931462 Ry
     Harris-Foulkes estimate   =    -447.58931462 Ry
     estimated scf accuracy    <          1.1E-16 Ry

     iteration # 26     ecut=    75.00 Ry     beta= 0.70
     Davidson diagonalization with overlap
     ethr =  1.00E-13,  avg # of iterations =  1.0

     total cpu time spent up to now is      566.8 secs

     total energy              =    -447.58931462 Ry
     Harris-Foulkes estimate   =    -447.58931462 Ry
     estimated scf accuracy    <          1.2E-17 Ry

     iteration # 27     ecut=    75.00 Ry     beta= 0.70
     Davidson diagonalization with overlap
     ethr =  1.00E-13,  avg # of iterations =  1.0

     total cpu time spent up to now is      585.9 secs

     total energy              =    -447.58931462 Ry
     Harris-Foulkes estimate   =    -447.58931462 Ry
     estimated scf accuracy    <          5.5E-17 Ry

     iteration # 28     ecut=    75.00 Ry     beta= 0.70
     Davidson diagonalization with overlap
     ethr =  1.00E-13,  avg # of iterations =  1.0

     total cpu time spent up to now is      604.9 secs

     total energy              =    -447.58931462 Ry
     Harris-Foulkes estimate   =    -447.58931462 Ry
     estimated scf accuracy    <          9.9E-17 Ry

     iteration # 29     ecut=    75.00 Ry     beta= 0.70
     Davidson diagonalization with overlap
     ethr =  1.00E-13,  avg # of iterations =  1.0

     total cpu time spent up to now is      624.1 secs

     total energy              =    -447.58931462 Ry
     Harris-Foulkes estimate   =    -447.58931462 Ry
     estimated scf accuracy    <          1.6E-16 Ry

     iteration # 30     ecut=    75.00 Ry     beta= 0.70
     Davidson diagonalization with overlap
     ethr =  1.00E-13,  avg # of iterations =  1.0

     total cpu time spent up to now is      643.2 secs

     total energy              =    -447.58931462 Ry
     Harris-Foulkes estimate   =    -447.58931462 Ry
     estimated scf accuracy    <          2.3E-16 Ry

     iteration # 31     ecut=    75.00 Ry     beta= 0.70
     Davidson diagonalization with overlap
     ethr =  1.00E-13,  avg # of iterations =  1.0

     total cpu time spent up to now is      662.2 secs

     total energy              =    -447.58931462 Ry
     Harris-Foulkes estimate   =    -447.58931462 Ry
     estimated scf accuracy    <          2.3E-16 Ry

     iteration # 32     ecut=    75.00 Ry     beta= 0.70
     Davidson diagonalization with overlap
     ethr =  1.00E-13,  avg # of iterations =  1.0

     total cpu time spent up to now is      681.4 secs

     total energy              =    -447.58931462 Ry
     Harris-Foulkes estimate   =    -447.58931462 Ry
     estimated scf accuracy    <          4.3E-16 Ry

     iteration # 33     ecut=    75.00 Ry     beta= 0.70
     Davidson diagonalization with overlap
     ethr =  1.00E-13,  avg # of iterations =  1.0

     total cpu time spent up to now is      700.8 secs

     total energy              =    -447.58931462 Ry
     Harris-Foulkes estimate   =    -447.58931462 Ry
     estimated scf accuracy    <          5.0E-16 Ry

     iteration # 34     ecut=    75.00 Ry     beta= 0.70
     Davidson diagonalization with overlap
     ethr =  1.00E-13,  avg # of iterations =  1.0

     total cpu time spent up to now is      720.0 secs

     total energy              =    -447.58931462 Ry
     Harris-Foulkes estimate   =    -447.58931462 Ry
     estimated scf accuracy    <          5.6E-16 Ry

     iteration # 35     ecut=    75.00 Ry     beta= 0.70
     Davidson diagonalization with overlap
     ethr =  1.00E-13,  avg # of iterations =  1.0

     total cpu time spent up to now is      739.3 secs

     total energy              =    -447.58931462 Ry
     Harris-Foulkes estimate   =    -447.58931462 Ry
     estimated scf accuracy    <          1.7E-16 Ry

     iteration # 36     ecut=    75.00 Ry     beta= 0.70
     Davidson diagonalization with overlap
     ethr =  1.00E-13,  avg # of iterations =  1.0

     total cpu time spent up to now is      758.6 secs

     total energy              =    -447.58931462 Ry
     Harris-Foulkes estimate   =    -447.58931462 Ry
     estimated scf accuracy    <          5.5E-18 Ry

     iteration # 37     ecut=    75.00 Ry     beta= 0.70
     Davidson diagonalization with overlap
     ethr =  1.00E-13,  avg # of iterations =  1.0

     total cpu time spent up to now is      777.9 secs

     total energy              =    -447.58931462 Ry
     Harris-Foulkes estimate   =    -447.58931462 Ry
     estimated scf accuracy    <          9.6E-17 Ry

     iteration # 38     ecut=    75.00 Ry     beta= 0.70
     Davidson diagonalization with overlap
     ethr =  1.00E-13,  avg # of iterations =  1.0

     total cpu time spent up to now is      796.3 secs

     total energy              =    -447.58931462 Ry
     Harris-Foulkes estimate   =    -447.58931462 Ry
     estimated scf accuracy    <          1.6E-16 Ry

     iteration # 39     ecut=    75.00 Ry     beta= 0.70
     Davidson diagonalization with overlap
     ethr =  1.00E-13,  avg # of iterations =  1.0

     total cpu time spent up to now is      814.8 secs

     total energy              =    -447.58931462 Ry
     Harris-Foulkes estimate   =    -447.58931462 Ry
     estimated scf accuracy    <          1.5E-16 Ry

     iteration # 40     ecut=    75.00 Ry     beta= 0.70
     Davidson diagonalization with overlap
     ethr =  1.00E-13,  avg # of iterations =  1.0

     total cpu time spent up to now is      833.2 secs

     total energy              =    -447.58931462 Ry
     Harris-Foulkes estimate   =    -447.58931462 Ry
     estimated scf accuracy    <          1.0E-16 Ry

     iteration # 41     ecut=    75.00 Ry     beta= 0.70
     Davidson diagonalization with overlap
     ethr =  1.00E-13,  avg # of iterations =  1.0

     total cpu time spent up to now is      851.7 secs

     total energy              =    -447.58931462 Ry
     Harris-Foulkes estimate   =    -447.58931462 Ry
     estimated scf accuracy    <          1.5E-17 Ry

     iteration # 42     ecut=    75.00 Ry     beta= 0.70
     Davidson diagonalization with overlap
     ethr =  1.00E-13,  avg # of iterations =  1.0

     total cpu time spent up to now is      870.3 secs

     total energy              =    -447.58931462 Ry
     Harris-Foulkes estimate   =    -447.58931462 Ry
     estimated scf accuracy    <          1.1E-17 Ry

     iteration # 43     ecut=    75.00 Ry     beta= 0.70
     Davidson diagonalization with overlap
     ethr =  1.00E-13,  avg # of iterations =  1.0

     total cpu time spent up to now is      889.0 secs

     total energy              =    -447.58931462 Ry
     Harris-Foulkes estimate   =    -447.58931462 Ry
     estimated scf accuracy    <          1.7E-18 Ry

     iteration # 44     ecut=    75.00 Ry     beta= 0.70
     Davidson diagonalization with overlap
     ethr =  1.00E-13,  avg # of iterations =  1.0

     total cpu time spent up to now is      907.5 secs

     total energy              =    -447.58931462 Ry
     Harris-Foulkes estimate   =    -447.58931462 Ry
     estimated scf accuracy    <          1.1E-20 Ry

     iteration # 45     ecut=    75.00 Ry     beta= 0.70
     Davidson diagonalization with overlap
     ethr =  1.00E-13,  avg # of iterations =  1.0

     total cpu time spent up to now is      926.0 secs

     total energy              =    -447.58931462 Ry
     Harris-Foulkes estimate   =    -447.58931462 Ry
     estimated scf accuracy    <          8.2E-20 Ry

     iteration # 46     ecut=    75.00 Ry     beta= 0.70
     Davidson diagonalization with overlap
     ethr =  1.00E-13,  avg # of iterations =  1.0

     total cpu time spent up to now is      944.6 secs

     total energy              =    -447.58931462 Ry
     Harris-Foulkes estimate   =    -447.58931462 Ry
     estimated scf accuracy    <          1.3E-19 Ry

     iteration # 47     ecut=    75.00 Ry     beta= 0.70
     Davidson diagonalization with overlap
     ethr =  1.00E-13,  avg # of iterations =  1.0

     total cpu time spent up to now is      963.1 secs

     total energy              =    -447.58931462 Ry
     Harris-Foulkes estimate   =    -447.58931462 Ry
     estimated scf accuracy    <          2.0E-19 Ry

     iteration # 48     ecut=    75.00 Ry     beta= 0.70
     Davidson diagonalization with overlap
     ethr =  1.00E-13,  avg # of iterations =  1.0

     total cpu time spent up to now is      981.7 secs

     total energy              =    -447.58931462 Ry
     Harris-Foulkes estimate   =    -447.58931462 Ry
     estimated scf accuracy    <          4.5E-20 Ry

     iteration # 49     ecut=    75.00 Ry     beta= 0.70
     Davidson diagonalization with overlap
     ethr =  1.00E-13,  avg # of iterations =  1.0

     total cpu time spent up to now is     1000.2 secs

     End of self-consistent calculation

     Number of k-points >= 100: set verbosity='high' to print the bands.

     highest occupied level (ev):     8.9025

!    total energy              =    -447.58931462 Ry
     Harris-Foulkes estimate   =    -447.58931462 Ry
     estimated scf accuracy    <          1.1E-21 Ry

     The total energy is the sum of the following terms:

     one-electron contribution =    -125.64518387 Ry
     hartree contribution      =     101.52749994 Ry
     xc contribution           =    -122.07159095 Ry
     ewald contribution        =    -301.40003973 Ry

     convergence has been achieved in  49 iterations

     Forces acting on atoms (cartesian axes, Ry/au):

     atom    1 type  1   force =     0.00000148    0.00000148    0.00000000
     atom    2 type  1   force =     0.00000472    0.00000472    0.00000000
     atom    3 type  2   force =     0.00004576   -0.00004927    0.00000000
     atom    4 type  2   force =    -0.00004927    0.00004576    0.00000000
     atom    5 type  2   force =     0.00004618    0.00004618    0.00000000
     atom    6 type  2   force =    -0.00004887   -0.00004887    0.00000000

     Total force =     0.000135     Total SCF correction =     0.000000


     Computing stress (Cartesian axis) and pressure

          total   stress  (Ry/bohr**3)                   (kbar)     P=   -4.77
  -0.00003300  -0.00000000   0.00000000         -4.85     -0.00      0.00
  -0.00000000  -0.00003300   0.00000000         -0.00     -4.85      0.00
   0.00000000   0.00000000  -0.00003133          0.00      0.00     -4.61


     Writing output data file 888.save
 
     init_run     :      9.25s CPU      9.63s WALL (       1 calls)
     electrons    :    982.64s CPU    989.87s WALL (       1 calls)
     forces       :      1.94s CPU      1.95s WALL (       1 calls)
     stress       :      5.97s CPU      6.00s WALL (       1 calls)

     Called by init_run:
     wfcinit      :      8.92s CPU      9.22s WALL (       1 calls)
     potinit      :      0.09s CPU      0.09s WALL (       1 calls)
     hinit0       :      0.15s CPU      0.16s WALL (       1 calls)

     Called by electrons:
     c_bands      :    833.41s CPU    839.30s WALL (      49 calls)
     sum_band     :    147.21s CPU    148.21s WALL (      49 calls)
     v_of_rho     :      1.58s CPU      1.58s WALL (      50 calls)
     mix_rho      :      0.44s CPU      0.45s WALL (      49 calls)

     Called by c_bands:
     init_us_2    :     19.19s CPU     19.36s WALL (   10605 calls)
     cegterg      :    737.48s CPU    742.67s WALL (    5145 calls)

     Called by sum_band:

     Called by *egterg:
     h_psi        :    652.62s CPU    657.20s WALL (   12955 calls)
     g_psi        :      5.37s CPU      5.41s WALL (    7705 calls)
     cdiaghg      :     13.19s CPU     13.35s WALL (   12850 calls)

     Called by h_psi:
     h_psi:pot    :    648.64s CPU    653.16s WALL (   12955 calls)
     h_psi:calbec :     36.42s CPU     36.61s WALL (   12955 calls)
     vloc_psi     :    575.16s CPU    579.30s WALL (   12955 calls)
     add_vuspsi   :     37.01s CPU     37.20s WALL (   12955 calls)

     General routines
     calbec       :     38.06s CPU     38.24s WALL (   13480 calls)
     fft          :      0.79s CPU      0.79s WALL (     525 calls)
     ffts         :      0.07s CPU      0.07s WALL (      49 calls)
     fftw         :    653.37s CPU    658.03s WALL (  722822 calls)
 
     Parallel routines
     fft_scatt_xy :     64.55s CPU     65.54s WALL (  723396 calls)
     fft_scatt_yz :     81.51s CPU     82.58s WALL (  723396 calls)
 
     PWSCF        : 16m40.25s CPU    16m57.14s WALL

 
   This run was terminated on:   1:21:56  29Apr2018            

=------------------------------------------------------------------------------=
   JOB DONE.
=------------------------------------------------------------------------------=
