
     Program PWSCF v.6.2.2 starts on 28Apr2018 at 19:13:11 

     This program is part of the open-source Quantum ESPRESSO suite
     for quantum simulation of materials; please cite
         "P. Giannozzi et al., J. Phys.:Condens. Matter 21 395502 (2009);
         "P. Giannozzi et al., J. Phys.:Condens. Matter 29 465901 (2017);
          URL http://www.quantum-espresso.org", 
     in publications or presentations arising from this work. More details at
     http://www.quantum-espresso.org/quote

     Parallel version (MPI), running on     2 processors

     MPI processes distributed on     1 nodes
     R & G space division:  proc/nbgrp/npool/nimage =       2
     Waiting for input...
     Reading input from standard input
Warning: card  &IONS ignored
Warning: card  / ignored
Warning: card  &CELL ignored
Warning: card  / ignored

     Current dimensions of program PWSCF are:
     Max number of different atomic species (ntypx) = 10
     Max number of k-points (npk) =  40000
     Max angular momentum in pseudopotentials (lmaxx) =  3

     Subspace diagonalization in iterative solution of the eigenvalue problem:
     a serial algorithm will be used

 
     Parallelization info
     --------------------
     sticks:   dense  smooth     PW     G-vecs:    dense   smooth      PW
     Min        1000    1000    296                22472    22472    3577
     Max        1001    1001    297                22473    22473    3578
     Sum        2001    2001    593                44945    44945    7155
 


     bravais-lattice index     =            6
     lattice parameter (alat)  =       9.1370  a.u.
     unit-cell volume          =     512.3005 (a.u.)^3
     number of atoms/cell      =            6
     number of atomic types    =            2
     number of electrons       =        52.00
     number of Kohn-Sham states=           26
     kinetic-energy cutoff     =      75.0000  Ry
     charge density cutoff     =     300.0000  Ry
     convergence threshold     =      1.0E-20
     mixing beta               =       0.7000
     number of iterations used =            8  plain     mixing
     Exchange-correlation      = PBE ( 1  4  3  4 0 0)

     celldm(1)=   9.137033  celldm(2)=   0.000000  celldm(3)=   0.671598
     celldm(4)=   0.000000  celldm(5)=   0.000000  celldm(6)=   0.000000

     crystal axes: (cart. coord. in units of alat)
               a(1) = (   1.000000   0.000000   0.000000 )  
               a(2) = (   0.000000   1.000000   0.000000 )  
               a(3) = (   0.000000   0.000000   0.671598 )  

     reciprocal axes: (cart. coord. in units 2 pi/alat)
               b(1) = (  1.000000  0.000000  0.000000 )  
               b(2) = (  0.000000  1.000000  0.000000 )  
               b(3) = (  0.000000  0.000000  1.488987 )  


     PseudoPot. # 1 for Sn read from file:
     ../../../Pseudo_potentials/Sn_PBE.upf
     MD5 check sum: 78e6386ae56e929f0568ae8bf606a80c
     Pseudo is Norm-conserving + core correction, Zval = 14.0
     Generated using ONCVPSP code by D. R. Hamann
     Using radial grid of 1628 points,  6 beta functions with: 
                l(1) =   0
                l(2) =   0
                l(3) =   1
                l(4) =   1
                l(5) =   2
                l(6) =   2

     PseudoPot. # 2 for O  read from file:
     ../../../Pseudo_potentials/O_PBE.upf
     MD5 check sum: 3e3f909f7470e8921608ab6b1f57bbae
     Pseudo is Norm-conserving + core correction, Zval =  6.0
     Generated using ONCVPSP code by D. R. Hamann
     Using radial grid of  936 points,  5 beta functions with: 
                l(1) =   0
                l(2) =   0
                l(3) =   1
                l(4) =   1
                l(5) =   2

     atomic species   valence    mass     pseudopotential
        Sn            14.00   118.71000     Sn( 1.00)
        O              6.00    15.99900     O ( 1.00)

      4 Sym. Ops. (no inversion) found



   Cartesian axes

     site n.     atom                  positions (alat units)
         1           Sn  tau(   1) = (  -0.0003320  -0.0003320   0.0000000  )
         2           Sn  tau(   2) = (   0.4996675   0.4996675   0.3357989  )
         3           O   tau(   3) = (   0.8063692   0.1929618   0.3357989  )
         4           O   tau(   4) = (   0.1929618   0.8063692   0.3357989  )
         5           O   tau(   5) = (   0.3063705   0.3063705   0.0000000  )
         6           O   tau(   6) = (   0.6929630   0.6929630   0.0000000  )

     number of k points=    52
                       cart. coord. in units 2pi/alat
        k(    1) = (   0.0000000   0.0000000   0.0000000), wk =   0.0092593
        k(    2) = (   0.0000000   0.0000000   0.2481644), wk =   0.0185185
        k(    3) = (   0.0000000   0.0000000   0.4963289), wk =   0.0185185
        k(    4) = (   0.0000000   0.0000000  -0.7444933), wk =   0.0092593
        k(    5) = (   0.0000000   0.1666667   0.0000000), wk =   0.0370370
        k(    6) = (   0.0000000   0.1666667   0.2481644), wk =   0.0740741
        k(    7) = (   0.0000000   0.1666667   0.4963289), wk =   0.0740741
        k(    8) = (   0.0000000   0.1666667  -0.7444933), wk =   0.0370370
        k(    9) = (   0.0000000   0.3333333   0.0000000), wk =   0.0370370
        k(   10) = (   0.0000000   0.3333333   0.2481644), wk =   0.0740741
        k(   11) = (   0.0000000   0.3333333   0.4963289), wk =   0.0740741
        k(   12) = (   0.0000000   0.3333333  -0.7444933), wk =   0.0370370
        k(   13) = (   0.0000000  -0.5000000   0.0000000), wk =   0.0185185
        k(   14) = (   0.0000000  -0.5000000   0.2481644), wk =   0.0370370
        k(   15) = (   0.0000000  -0.5000000   0.4963289), wk =   0.0370370
        k(   16) = (   0.0000000  -0.5000000  -0.7444933), wk =   0.0185185
        k(   17) = (   0.1666667   0.1666667   0.0000000), wk =   0.0185185
        k(   18) = (   0.1666667   0.1666667   0.2481644), wk =   0.0370370
        k(   19) = (   0.1666667   0.1666667   0.4963289), wk =   0.0370370
        k(   20) = (   0.1666667   0.1666667  -0.7444933), wk =   0.0185185
        k(   21) = (   0.1666667   0.3333333   0.0000000), wk =   0.0370370
        k(   22) = (   0.1666667   0.3333333   0.2481644), wk =   0.0740741
        k(   23) = (   0.1666667   0.3333333   0.4963289), wk =   0.0740741
        k(   24) = (   0.1666667   0.3333333  -0.7444933), wk =   0.0370370
        k(   25) = (   0.1666667  -0.5000000   0.0000000), wk =   0.0370370
        k(   26) = (   0.1666667  -0.5000000   0.2481644), wk =   0.0740741
        k(   27) = (   0.1666667  -0.5000000   0.4963289), wk =   0.0740741
        k(   28) = (   0.1666667  -0.5000000  -0.7444933), wk =   0.0370370
        k(   29) = (   0.3333333   0.3333333   0.0000000), wk =   0.0185185
        k(   30) = (   0.3333333   0.3333333   0.2481644), wk =   0.0370370
        k(   31) = (   0.3333333   0.3333333   0.4963289), wk =   0.0370370
        k(   32) = (   0.3333333   0.3333333  -0.7444933), wk =   0.0185185
        k(   33) = (   0.3333333  -0.5000000   0.0000000), wk =   0.0370370
        k(   34) = (   0.3333333  -0.5000000   0.2481644), wk =   0.0740741
        k(   35) = (   0.3333333  -0.5000000   0.4963289), wk =   0.0740741
        k(   36) = (   0.3333333  -0.5000000  -0.7444933), wk =   0.0370370
        k(   37) = (  -0.5000000  -0.5000000   0.0000000), wk =   0.0092593
        k(   38) = (  -0.5000000  -0.5000000   0.2481644), wk =   0.0185185
        k(   39) = (  -0.5000000  -0.5000000   0.4963289), wk =   0.0185185
        k(   40) = (  -0.5000000  -0.5000000  -0.7444933), wk =   0.0092593
        k(   41) = (   0.1666667  -0.1666667   0.0000000), wk =   0.0185185
        k(   42) = (   0.1666667  -0.1666667   0.2481644), wk =   0.0370370
        k(   43) = (   0.1666667  -0.1666667   0.4963289), wk =   0.0370370
        k(   44) = (   0.1666667  -0.1666667  -0.7444933), wk =   0.0185185
        k(   45) = (   0.3333333  -0.1666667   0.0000000), wk =   0.0370370
        k(   46) = (   0.3333333  -0.1666667   0.2481644), wk =   0.0740741
        k(   47) = (   0.3333333  -0.1666667   0.4963289), wk =   0.0740741
        k(   48) = (   0.3333333  -0.1666667  -0.7444933), wk =   0.0370370
        k(   49) = (   0.3333333  -0.3333333   0.0000000), wk =   0.0185185
        k(   50) = (   0.3333333  -0.3333333   0.2481644), wk =   0.0370370
        k(   51) = (   0.3333333  -0.3333333   0.4963289), wk =   0.0370370
        k(   52) = (   0.3333333  -0.3333333  -0.7444933), wk =   0.0185185

     Dense  grid:    44945 G-vectors     FFT dimensions: (  54,  54,  36)

     Estimated max dynamical RAM per process >      89.96 MB

     Estimated total dynamical RAM >     179.91 MB

     Check: negative/imaginary core charge=   -0.000002    0.000000

     Initial potential from superposition of free atoms

     starting charge   51.99690, renormalised to   52.00000
     Starting wfc are   34 randomized atomic wfcs

     total cpu time spent up to now is        7.7 secs

     Self-consistent Calculation

     iteration #  1     ecut=    75.00 Ry     beta= 0.70
     Davidson diagonalization with overlap
     ethr =  1.00E-02,  avg # of iterations =  2.0

     total cpu time spent up to now is       23.7 secs

     total energy              =    -446.84498364 Ry
     Harris-Foulkes estimate   =    -448.03030135 Ry
     estimated scf accuracy    <       1.60787012 Ry

     iteration #  2     ecut=    75.00 Ry     beta= 0.70
     Davidson diagonalization with overlap
     ethr =  3.09E-03,  avg # of iterations =  3.1

     total cpu time spent up to now is       43.6 secs

     total energy              =    -447.25454991 Ry
     Harris-Foulkes estimate   =    -448.07227117 Ry
     estimated scf accuracy    <       1.69282877 Ry

     iteration #  3     ecut=    75.00 Ry     beta= 0.70
     Davidson diagonalization with overlap
     ethr =  3.09E-03,  avg # of iterations =  3.0

     total cpu time spent up to now is       62.3 secs

     total energy              =    -447.58574324 Ry
     Harris-Foulkes estimate   =    -447.58642160 Ry
     estimated scf accuracy    <       0.00609815 Ry

     iteration #  4     ecut=    75.00 Ry     beta= 0.70
     Davidson diagonalization with overlap
     ethr =  1.17E-05,  avg # of iterations =  3.0

     total cpu time spent up to now is       83.1 secs

     total energy              =    -447.58881776 Ry
     Harris-Foulkes estimate   =    -447.58908631 Ry
     estimated scf accuracy    <       0.00056492 Ry

     iteration #  5     ecut=    75.00 Ry     beta= 0.70
     Davidson diagonalization with overlap
     ethr =  1.09E-06,  avg # of iterations =  2.0

     total cpu time spent up to now is       98.5 secs

     total energy              =    -447.58885120 Ry
     Harris-Foulkes estimate   =    -447.58886387 Ry
     estimated scf accuracy    <       0.00003741 Ry

     iteration #  6     ecut=    75.00 Ry     beta= 0.70
     Davidson diagonalization with overlap
     ethr =  7.19E-08,  avg # of iterations =  3.8

     total cpu time spent up to now is      120.6 secs

     total energy              =    -447.58886510 Ry
     Harris-Foulkes estimate   =    -447.58886789 Ry
     estimated scf accuracy    <       0.00000795 Ry

     iteration #  7     ecut=    75.00 Ry     beta= 0.70
     Davidson diagonalization with overlap
     ethr =  1.53E-08,  avg # of iterations =  3.2

     total cpu time spent up to now is      139.4 secs

     total energy              =    -447.58927348 Ry
     Harris-Foulkes estimate   =    -447.58927472 Ry
     estimated scf accuracy    <       0.00000539 Ry

     iteration #  8     ecut=    75.00 Ry     beta= 0.70
     Davidson diagonalization with overlap
     ethr =  1.04E-08,  avg # of iterations =  2.2

     total cpu time spent up to now is      155.6 secs

     total energy              =    -447.58927329 Ry
     Harris-Foulkes estimate   =    -447.58927390 Ry
     estimated scf accuracy    <       0.00000172 Ry

     iteration #  9     ecut=    75.00 Ry     beta= 0.70
     Davidson diagonalization with overlap
     ethr =  3.30E-09,  avg # of iterations =  2.6

     total cpu time spent up to now is      172.8 secs

     total energy              =    -447.58927331 Ry
     Harris-Foulkes estimate   =    -447.58927345 Ry
     estimated scf accuracy    <       0.00000028 Ry

     iteration # 10     ecut=    75.00 Ry     beta= 0.70
     Davidson diagonalization with overlap
     ethr =  5.33E-10,  avg # of iterations =  3.0

     total cpu time spent up to now is      192.0 secs

     total energy              =    -447.58927337 Ry
     Harris-Foulkes estimate   =    -447.58927338 Ry
     estimated scf accuracy    <       0.00000005 Ry

     iteration # 11     ecut=    75.00 Ry     beta= 0.70
     Davidson diagonalization with overlap
     ethr =  9.44E-11,  avg # of iterations =  2.9

     total cpu time spent up to now is      209.7 secs

     total energy              =    -447.58927337 Ry
     Harris-Foulkes estimate   =    -447.58927337 Ry
     estimated scf accuracy    <          6.9E-09 Ry

     iteration # 12     ecut=    75.00 Ry     beta= 0.70
     Davidson diagonalization with overlap
     ethr =  1.32E-11,  avg # of iterations =  2.5

     total cpu time spent up to now is      227.0 secs

     total energy              =    -447.58927337 Ry
     Harris-Foulkes estimate   =    -447.58927337 Ry
     estimated scf accuracy    <          1.2E-09 Ry

     iteration # 13     ecut=    75.00 Ry     beta= 0.70
     Davidson diagonalization with overlap
     ethr =  2.25E-12,  avg # of iterations =  3.1

     total cpu time spent up to now is      246.3 secs

     total energy              =    -447.58927337 Ry
     Harris-Foulkes estimate   =    -447.58927337 Ry
     estimated scf accuracy    <          1.8E-10 Ry

     iteration # 14     ecut=    75.00 Ry     beta= 0.70
     Davidson diagonalization with overlap
     ethr =  3.44E-13,  avg # of iterations =  3.0

     total cpu time spent up to now is      264.9 secs

     total energy              =    -447.58927337 Ry
     Harris-Foulkes estimate   =    -447.58927337 Ry
     estimated scf accuracy    <          9.4E-12 Ry

     iteration # 15     ecut=    75.00 Ry     beta= 0.70
     Davidson diagonalization with overlap
     ethr =  1.00E-13,  avg # of iterations =  1.3

     total cpu time spent up to now is      279.9 secs

     total energy              =    -447.58927337 Ry
     Harris-Foulkes estimate   =    -447.58927337 Ry
     estimated scf accuracy    <          6.0E-13 Ry

     iteration # 16     ecut=    75.00 Ry     beta= 0.70
     Davidson diagonalization with overlap
     ethr =  1.00E-13,  avg # of iterations =  1.0

     total cpu time spent up to now is      294.4 secs

     total energy              =    -447.58927337 Ry
     Harris-Foulkes estimate   =    -447.58927337 Ry
     estimated scf accuracy    <          2.2E-14 Ry

     iteration # 17     ecut=    75.00 Ry     beta= 0.70
     Davidson diagonalization with overlap
     ethr =  1.00E-13,  avg # of iterations =  1.0

     total cpu time spent up to now is      308.9 secs

     total energy              =    -447.58927337 Ry
     Harris-Foulkes estimate   =    -447.58927337 Ry
     estimated scf accuracy    <          2.7E-14 Ry

     iteration # 18     ecut=    75.00 Ry     beta= 0.70
     Davidson diagonalization with overlap
     ethr =  1.00E-13,  avg # of iterations =  1.0

     total cpu time spent up to now is      323.4 secs

     total energy              =    -447.58927337 Ry
     Harris-Foulkes estimate   =    -447.58927337 Ry
     estimated scf accuracy    <          2.5E-14 Ry

     iteration # 19     ecut=    75.00 Ry     beta= 0.70
     Davidson diagonalization with overlap
     ethr =  1.00E-13,  avg # of iterations =  1.0

     total cpu time spent up to now is      337.9 secs

     total energy              =    -447.58927337 Ry
     Harris-Foulkes estimate   =    -447.58927337 Ry
     estimated scf accuracy    <          3.3E-14 Ry

     iteration # 20     ecut=    75.00 Ry     beta= 0.70
     Davidson diagonalization with overlap
     ethr =  1.00E-13,  avg # of iterations =  1.0

     total cpu time spent up to now is      352.3 secs

     total energy              =    -447.58927337 Ry
     Harris-Foulkes estimate   =    -447.58927337 Ry
     estimated scf accuracy    <          1.1E-13 Ry

     iteration # 21     ecut=    75.00 Ry     beta= 0.70
     Davidson diagonalization with overlap
     ethr =  1.00E-13,  avg # of iterations =  1.0

     total cpu time spent up to now is      366.8 secs

     total energy              =    -447.58927337 Ry
     Harris-Foulkes estimate   =    -447.58927337 Ry
     estimated scf accuracy    <          3.3E-14 Ry

     iteration # 22     ecut=    75.00 Ry     beta= 0.70
     Davidson diagonalization with overlap
     ethr =  1.00E-13,  avg # of iterations =  1.0

     total cpu time spent up to now is      381.2 secs

     total energy              =    -447.58927337 Ry
     Harris-Foulkes estimate   =    -447.58927337 Ry
     estimated scf accuracy    <          6.0E-15 Ry

     iteration # 23     ecut=    75.00 Ry     beta= 0.70
     Davidson diagonalization with overlap
     ethr =  1.00E-13,  avg # of iterations =  1.0

     total cpu time spent up to now is      395.6 secs

     total energy              =    -447.58927337 Ry
     Harris-Foulkes estimate   =    -447.58927337 Ry
     estimated scf accuracy    <          1.3E-14 Ry

     iteration # 24     ecut=    75.00 Ry     beta= 0.70
     Davidson diagonalization with overlap
     ethr =  1.00E-13,  avg # of iterations =  1.0

     total cpu time spent up to now is      410.0 secs

     total energy              =    -447.58927337 Ry
     Harris-Foulkes estimate   =    -447.58927337 Ry
     estimated scf accuracy    <          2.8E-16 Ry

     iteration # 25     ecut=    75.00 Ry     beta= 0.70
     Davidson diagonalization with overlap
     ethr =  1.00E-13,  avg # of iterations =  1.0

     total cpu time spent up to now is      424.3 secs

     total energy              =    -447.58927337 Ry
     Harris-Foulkes estimate   =    -447.58927337 Ry
     estimated scf accuracy    <          1.9E-16 Ry

     iteration # 26     ecut=    75.00 Ry     beta= 0.70
     Davidson diagonalization with overlap
     ethr =  1.00E-13,  avg # of iterations =  1.0

     total cpu time spent up to now is      438.7 secs

     total energy              =    -447.58927337 Ry
     Harris-Foulkes estimate   =    -447.58927337 Ry
     estimated scf accuracy    <          7.6E-18 Ry

     iteration # 27     ecut=    75.00 Ry     beta= 0.70
     Davidson diagonalization with overlap
     ethr =  1.00E-13,  avg # of iterations =  1.0

     total cpu time spent up to now is      453.1 secs

     total energy              =    -447.58927337 Ry
     Harris-Foulkes estimate   =    -447.58927337 Ry
     estimated scf accuracy    <          1.9E-17 Ry

     iteration # 28     ecut=    75.00 Ry     beta= 0.70
     Davidson diagonalization with overlap
     ethr =  1.00E-13,  avg # of iterations =  1.0

     total cpu time spent up to now is      467.5 secs

     total energy              =    -447.58927337 Ry
     Harris-Foulkes estimate   =    -447.58927337 Ry
     estimated scf accuracy    <          8.1E-18 Ry

     iteration # 29     ecut=    75.00 Ry     beta= 0.70
     Davidson diagonalization with overlap
     ethr =  1.00E-13,  avg # of iterations =  1.0

     total cpu time spent up to now is      481.9 secs

     total energy              =    -447.58927337 Ry
     Harris-Foulkes estimate   =    -447.58927337 Ry
     estimated scf accuracy    <          2.3E-18 Ry

     iteration # 30     ecut=    75.00 Ry     beta= 0.70
     Davidson diagonalization with overlap
     ethr =  1.00E-13,  avg # of iterations =  1.0

     total cpu time spent up to now is      496.3 secs

     total energy              =    -447.58927337 Ry
     Harris-Foulkes estimate   =    -447.58927337 Ry
     estimated scf accuracy    <          9.6E-20 Ry

     iteration # 31     ecut=    75.00 Ry     beta= 0.70
     Davidson diagonalization with overlap
     ethr =  1.00E-13,  avg # of iterations =  1.0

     total cpu time spent up to now is      510.7 secs

     total energy              =    -447.58927337 Ry
     Harris-Foulkes estimate   =    -447.58927337 Ry
     estimated scf accuracy    <          2.8E-20 Ry

     iteration # 32     ecut=    75.00 Ry     beta= 0.70
     Davidson diagonalization with overlap
     ethr =  1.00E-13,  avg # of iterations =  1.0

     total cpu time spent up to now is      525.1 secs

     total energy              =    -447.58927337 Ry
     Harris-Foulkes estimate   =    -447.58927337 Ry
     estimated scf accuracy    <          1.4E-20 Ry

     iteration # 33     ecut=    75.00 Ry     beta= 0.70
     Davidson diagonalization with overlap
     ethr =  1.00E-13,  avg # of iterations =  1.0

     total cpu time spent up to now is      539.3 secs

     End of self-consistent calculation

          k = 0.0000 0.0000 0.0000 (  5609 PWs)   bands (ev):

   -12.1618 -11.5437 -11.3451 -11.3174 -11.3174 -11.2366 -11.2161 -11.1500
   -11.1388 -11.1388  -9.6879  -7.9735  -7.9735  -6.5160   0.9512   5.0316
     5.0316   5.1352   6.0337   6.8907   6.9430   7.6242   7.6242   8.1965
     8.1965   8.9027

          k = 0.0000 0.0000 0.2482 (  5645 PWs)   bands (ev):

   -12.0518 -11.5027 -11.5027 -11.4370 -11.3062 -11.2517 -11.2079 -11.1649
   -11.1649 -11.1507  -9.5316  -7.6452  -7.6452  -6.6961   0.9570   4.9200
     5.2572   5.2572   5.3849   6.2086   6.6480   6.7883   6.7883   8.1941
     8.1941   8.7015

          k = 0.0000 0.0000 0.4963 (  5605 PWs)   bands (ev):

   -11.8149 -11.8149 -11.7941 -11.3774 -11.2131 -11.2073 -11.2073 -11.1965
   -11.1883 -11.1554  -9.0069  -7.2649  -7.0332  -7.0332   1.1311   3.3568
     4.7972   5.3502   5.3502   5.9592   5.9837   5.9837   6.7019   7.9703
     7.9703   8.1505

          k = 0.0000 0.0000-0.7445 (  5592 PWs)   bands (ev):

   -11.9492 -11.9492 -11.5376 -11.5376 -11.2275 -11.2275 -11.1681 -11.1681
   -11.1421 -11.1421  -8.1452  -8.1452  -6.7356  -6.7356   1.8679   1.8679
     4.8511   4.8511   5.2028   5.2028   6.3238   6.3238   7.4104   7.4104
     7.7373   7.7373

          k = 0.0000 0.1667 0.0000 (  5629 PWs)   bands (ev):

   -12.1260 -11.5815 -11.3438 -11.3158 -11.3157 -11.2650 -11.2111 -11.1538
   -11.1407 -11.1407  -9.6041  -8.1406  -7.8434  -6.5655   1.1339   4.5153
     5.1524   5.2322   6.1769   6.7701   7.1015   7.6070   7.6338   7.6574
     8.2099   8.7753

          k = 0.0000 0.1667 0.2482 (  5631 PWs)   bands (ev):

   -12.0251 -11.5708 -11.4962 -11.4249 -11.3020 -11.2507 -11.2038 -11.1650
   -11.1636 -11.1531  -9.4474  -7.8554  -7.5425  -6.6777   1.1450   4.6127
     4.6348   5.2734   5.7339   6.2276   6.6440   6.9319   7.1075   8.0464
     8.1814   8.6484

          k = 0.0000 0.1667 0.4963 (  5628 PWs)   bands (ev):

   -11.9170 -11.8602 -11.6592 -11.3484 -11.2223 -11.2135 -11.1985 -11.1914
   -11.1838 -11.1564  -8.9612  -7.5958  -6.9731  -6.8215   1.2854   3.2462
     4.3479   4.9683   5.3619   5.4326   6.3938   6.7802   6.9178   7.9352
     8.0100   8.1843

          k = 0.0000 0.1667-0.7445 (  5608 PWs)   bands (ev):

   -11.9972 -11.9972 -11.4728 -11.4728 -11.2296 -11.2296 -11.1669 -11.1669
   -11.1393 -11.1393  -8.1996  -8.1996  -6.6911  -6.6911   1.9129   1.9129
     4.5094   4.5094   4.9985   4.9985   6.8248   6.8248   7.4990   7.4990
     7.7644   7.7644

          k = 0.0000 0.3333 0.0000 (  5653 PWs)   bands (ev):

   -12.0229 -11.7015 -11.3395 -11.3124 -11.3123 -11.3076 -11.1978 -11.1646
   -11.1446 -11.1445  -9.3587  -8.5344  -7.5116  -6.7594   1.6698   3.5157
     5.4979   5.5078   6.3740   6.5593   6.7486   7.2798   7.6583   7.6889
     8.2457   8.4976

          k = 0.0000 0.3333 0.2482 (  5622 PWs)   bands (ev):

   -11.9485 -11.6975 -11.4783 -11.4317 -11.2900 -11.2575 -11.1929 -11.1675
   -11.1645 -11.1576  -9.1935  -8.3074  -7.2823  -6.7495   1.6892   3.5567
     4.4933   4.9225   6.1817   6.5608   6.5663   7.2442   7.4362   7.6907
     8.1612   8.4592

          k = 0.0000 0.3333 0.4963 (  5631 PWs)   bands (ev):

   -11.9796 -11.9381 -11.5076 -11.3297 -11.2302 -11.2237 -11.1896 -11.1843
   -11.1741 -11.1596  -8.7971  -8.0596  -6.8336  -6.6855   1.7228   2.9224
     3.8871   4.1197   5.3515   5.3597   7.1505   7.1913   7.3054   7.9093
     8.0256   8.2324

          k = 0.0000 0.3333-0.7445 (  5618 PWs)   bands (ev):

   -12.0684 -12.0684 -11.3700 -11.3700 -11.2304 -11.2304 -11.1646 -11.1646
   -11.1336 -11.1336  -8.3028  -8.3028  -6.6092  -6.6092   2.0325   2.0325
     3.8704   3.8704   4.9174   4.9174   7.2241   7.2241   7.7566   7.7566
     7.9578   7.9578

          k = 0.0000-0.5000 0.0000 (  5638 PWs)   bands (ev):

   -11.8690 -11.8690 -11.3298 -11.3298 -11.3106 -11.3106 -11.1806 -11.1806
   -11.1465 -11.1465  -8.9801  -8.9801  -7.1056  -7.1056   2.5019   2.5020
     5.9151   5.9151   6.0399   6.0399   7.0242   7.0242   7.6837   7.6837
     8.3142   8.3142

          k = 0.0000-0.5000 0.2482 (  5612 PWs)   bands (ev):

   -11.8327 -11.8327 -11.4537 -11.4537 -11.2732 -11.2732 -11.1793 -11.1793
   -11.1619 -11.1619  -8.7920  -8.7920  -6.9769  -6.9769   2.5272   2.5272
     4.6125   4.6125   6.3821   6.3821   7.1797   7.1797   7.4965   7.4965
     8.2271   8.2271

          k = 0.0000-0.5000 0.4963 (  5638 PWs)   bands (ev):

   -11.9856 -11.9856 -11.3851 -11.3851 -11.2312 -11.2312 -11.1833 -11.1833
   -11.1653 -11.1653  -8.4862  -8.4862  -6.7070  -6.7070   2.3481   2.3481
     3.7572   3.7572   5.3341   5.3341   7.3469   7.3469   7.7766   7.7766
     8.1025   8.1025

          k = 0.0000-0.5000-0.7445 (  5596 PWs)   bands (ev):

   -12.0973 -12.0973 -11.3286 -11.3286 -11.2270 -11.2270 -11.1635 -11.1635
   -11.1306 -11.1306  -8.3522  -8.3522  -6.5711  -6.5711   2.1175   2.1175
     3.5815   3.5815   4.8932   4.8932   7.2455   7.2455   7.9204   7.9204
     8.1360   8.1360

          k = 0.1667 0.1667 0.0000 (  5620 PWs)   bands (ev):

   -12.0974 -11.6223 -11.3420 -11.3179 -11.3121 -11.2829 -11.2066 -11.1569
   -11.1447 -11.1386  -9.5150  -8.0211  -7.9991  -6.6343   1.3235   4.3652
     5.0457   5.3211   6.2935   6.6490   7.1546   7.3239   7.6066   7.6878
     8.1693   8.6726

          k = 0.1667 0.1667 0.2482 (  5634 PWs)   bands (ev):

   -12.0018 -11.6079 -11.5040 -11.4250 -11.3011 -11.2502 -11.2001 -11.1656
   -11.1637 -11.1553  -9.3565  -7.8158  -7.6688  -6.6927   1.3275   4.0081
     5.1274   5.2896   5.4601   6.1837   6.6689   6.9805   7.3539   7.9154
     8.1762   8.6135

          k = 0.1667 0.1667 0.4963 (  5618 PWs)   bands (ev):

   -11.9667 -11.8170 -11.6692 -11.3292 -11.2273 -11.2102 -11.2031 -11.1860
   -11.1812 -11.1574  -8.9042  -7.6847  -7.0529  -6.7134   1.3904   3.0709
     4.0229   5.1114   5.1735   5.8633   5.9116   7.0698   7.2269   7.9630
     8.0057   8.2124

          k = 0.1667 0.1667-0.7445 (  5618 PWs)   bands (ev):

   -12.0674 -11.9516 -11.5421 -11.3637 -11.2321 -11.2298 -11.1668 -11.1651
   -11.1393 -11.1354  -8.3189  -8.1089  -6.7532  -6.6022   1.6647   2.1665
     3.9720   4.5530   4.6426   5.7334   6.3301   7.4705   7.5860   7.5917
     7.6892   7.8462

          k = 0.1667 0.3333 0.0000 (  5627 PWs)   bands (ev):

   -12.0137 -11.7374 -11.3366 -11.3165 -11.3106 -11.3106 -11.1948 -11.1661
   -11.1465 -11.1403  -9.2568  -8.4077  -7.6726  -6.8683   1.8671   3.6114
     5.3219   5.5719   6.3336   6.5498   6.6198   7.2860   7.6142   7.6874
     8.1777   8.4301

          k = 0.1667 0.3333 0.2482 (  5625 PWs)   bands (ev):

   -11.9342 -11.7110 -11.4925 -11.4396 -11.2935 -11.2601 -11.1904 -11.1684
   -11.1648 -11.1594  -9.0893  -8.1994  -7.4422  -6.8249   1.8409   3.3626
     4.8375   4.9556   6.0224   6.2762   6.5742   7.2729   7.5527   7.6223
     8.1580   8.4627

          k = 0.1667 0.3333 0.4963 (  5618 PWs)   bands (ev):

   -11.9899 -11.8820 -11.5673 -11.3438 -11.2310 -11.2183 -11.1948 -11.1830
   -11.1737 -11.1605  -8.7148  -8.0006  -6.9616  -6.6816   1.6797   2.5949
     3.9539   4.6728   5.0911   5.4769   6.7631   7.3691   7.5599   7.8958
     8.0364   8.2413

          k = 0.1667 0.3333-0.7445 (  5606 PWs)   bands (ev):

   -12.0972 -12.0006 -11.4800 -11.3221 -11.2331 -11.2297 -11.1651 -11.1634
   -11.1349 -11.1325  -8.3528  -8.1478  -6.7142  -6.5695   1.6010   2.0840
     3.7921   4.3015   4.5926   5.3995   6.9383   7.5578   7.7101   7.8523
     7.8839   8.0244

          k = 0.1667-0.5000 0.0000 (  5610 PWs)   bands (ev):

   -11.8846 -11.8846 -11.3274 -11.3274 -11.3129 -11.3129 -11.1798 -11.1798
   -11.1443 -11.1443  -8.8638  -8.8638  -7.2486  -7.2485   2.6801   2.6801
     5.8719   5.8719   5.9368   5.9368   7.0307   7.0307   7.6527   7.6527
     8.2491   8.2491

          k = 0.1667-0.5000 0.2482 (  5630 PWs)   bands (ev):

   -11.8310 -11.8310 -11.4666 -11.4666 -11.2782 -11.2782 -11.1783 -11.1783
   -11.1627 -11.1627  -8.6790  -8.6789  -7.1045  -7.1045   2.5807   2.5807
     4.7575   4.7575   6.2486   6.2486   7.0175   7.0175   7.5745   7.5745
     8.2483   8.2483

          k = 0.1667-0.5000 0.4963 (  5626 PWs)   bands (ev):

   -11.9588 -11.9588 -11.4343 -11.4343 -11.2270 -11.2270 -11.1862 -11.1862
   -11.1660 -11.1660  -8.3917  -8.3917  -6.7876  -6.7876   2.0963   2.0963
     4.1978   4.1978   5.2054   5.2054   7.4139   7.4139   7.7060   7.7060
     8.1248   8.1248

          k = 0.1667-0.5000-0.7445 (  5596 PWs)   bands (ev):

   -12.0704 -12.0704 -11.3744 -11.3744 -11.2306 -11.2306 -11.1635 -11.1635
   -11.1324 -11.1324  -8.2713  -8.2713  -6.6204  -6.6204   1.7721   1.7721
     4.0082   4.0082   4.8743   4.8743   7.3787   7.3787   7.9673   7.9673
     8.0006   8.0006

          k = 0.3333 0.3333 0.0000 (  5620 PWs)   bands (ev):

   -11.9802 -11.8230 -11.3301 -11.3189 -11.3166 -11.3132 -11.1873 -11.1706
   -11.1441 -11.1381  -8.9683  -8.0886  -8.0504  -7.1802   2.4015   3.6198
     5.1308   5.7471   6.0470   6.2001   6.8005   7.2379   7.5717   7.6441
     8.1031   8.2596

          k = 0.3333 0.3333 0.2482 (  5622 PWs)   bands (ev):

   -11.8920 -11.7575 -11.5064 -11.4643 -11.2940 -11.2723 -11.1837 -11.1699
   -11.1657 -11.1623  -8.7970  -8.0207  -7.7158  -7.0687   2.2304   3.0597
     4.9816   5.3660   5.7593   6.0957   6.3769   7.1729   7.4979   7.8319
     8.1224   8.3856

          k = 0.3333 0.3333 0.4963 (  5610 PWs)   bands (ev):

   -11.9607 -11.8212 -11.6369 -11.4224 -11.2262 -11.2106 -11.2017 -11.1856
   -11.1711 -11.1631  -8.4819  -7.9632  -7.0921  -6.7874   1.6569   2.1016
     4.5159   4.8273   4.8416   5.9783   6.2575   7.6385   7.6610   7.8239
     8.0826   8.2597

          k = 0.3333 0.3333-0.7445 (  5600 PWs)   bands (ev):

   -12.0713 -11.9563 -11.5483 -11.3728 -11.2325 -11.2306 -11.1645 -11.1629
   -11.1364 -11.1338  -8.2561  -8.0349  -6.7881  -6.6245   1.3225   1.6511
     4.2779   4.3000   4.5299   6.2893   6.3617   7.7660   7.8139   7.8665
     7.9575   8.0599

          k = 0.3333-0.5000 0.0000 (  5636 PWs)   bands (ev):

   -11.9143 -11.9143 -11.3230 -11.3230 -11.3173 -11.3173 -11.1782 -11.1782
   -11.1399 -11.1399  -8.5441  -8.5441  -7.6201  -7.6201   3.1015   3.1015
     5.4632   5.4632   5.9825   5.9825   7.0526   7.0526   7.5880   7.5880
     8.1234   8.1234

          k = 0.3333-0.5000 0.2482 (  5614 PWs)   bands (ev):

   -11.8272 -11.8272 -11.4935 -11.4935 -11.2862 -11.2862 -11.1757 -11.1757
   -11.1644 -11.1644  -8.3791  -8.3791  -7.4339  -7.4339   2.6882   2.6882
     5.1289   5.1289   6.0304   6.0304   6.5917   6.5917   7.7754   7.7754
     8.2090   8.2090

          k = 0.3333-0.5000 0.4963 (  5586 PWs)   bands (ev):

   -11.8859 -11.8859 -11.5494 -11.5494 -11.2175 -11.2175 -11.1938 -11.1938
   -11.1668 -11.1668  -8.1715  -8.1715  -6.9825  -6.9825   1.7805   1.7805
     4.7258   4.7258   5.3228   5.3228   7.0160   7.0160   7.8805   7.8805
     8.1721   8.1722

          k = 0.3333-0.5000-0.7445 (  5608 PWs)   bands (ev):

   -12.0037 -12.0037 -11.4836 -11.4836 -11.2306 -11.2306 -11.1635 -11.1635
   -11.1361 -11.1361  -8.0958  -8.0958  -6.7356  -6.7356   1.3387   1.3387
     4.2069   4.2069   5.4516   5.4516   7.2171   7.2171   7.9197   7.9197
     8.0829   8.0829

          k =-0.5000-0.5000 0.0000 (  5660 PWs)   bands (ev):

   -11.9285 -11.9285 -11.3211 -11.3211 -11.3194 -11.3194 -11.1775 -11.1775
   -11.1378 -11.1378  -8.1134  -8.1134  -8.0761  -8.0761   3.3748   3.3748
     5.1934   5.1934   6.0067   6.0067   7.0678   7.0678   7.5544   7.5544
     8.0615   8.0615

          k =-0.5000-0.5000 0.2482 (  5624 PWs)   bands (ev):

   -11.8251 -11.8251 -11.5075 -11.5075 -11.2894 -11.2894 -11.1740 -11.1740
   -11.1655 -11.1655  -8.0885  -8.0885  -7.7393  -7.7393   2.7426   2.7426
     5.3974   5.3974   6.0695   6.0695   6.1591   6.1591   7.9669   7.9669
     8.0826   8.0826

          k =-0.5000-0.5000 0.4963 (  5588 PWs)   bands (ev):

   -11.8232 -11.8232 -11.6322 -11.6322 -11.2088 -11.2088 -11.2018 -11.2018
   -11.1670 -11.1670  -8.0309  -8.0309  -7.1116  -7.1116   1.6639   1.6639
     4.6968   4.6968   6.0392   6.0392   6.3734   6.3734   8.0723   8.0723
     8.1254   8.1254

          k =-0.5000-0.5000-0.7445 (  5616 PWs)   bands (ev):

   -11.9586 -11.9586 -11.5501 -11.5501 -11.2293 -11.2293 -11.1635 -11.1635
   -11.1380 -11.1380  -7.9971  -7.9971  -6.8054  -6.8054   1.1748   1.1748
     4.1529   4.1529   6.3839   6.3839   6.4644   6.4644   8.0018   8.0018
     8.1471   8.1471

          k = 0.1667-0.1667 0.0000 (  5620 PWs)   bands (ev):

   -12.0974 -11.6223 -11.3420 -11.3179 -11.3121 -11.2829 -11.2066 -11.1569
   -11.1447 -11.1386  -9.5150  -8.0211  -7.9991  -6.6343   1.3235   4.3652
     5.0457   5.3211   6.2935   6.6490   7.1546   7.3239   7.6066   7.6878
     8.1693   8.6726

          k = 0.1667-0.1667 0.2482 (  5634 PWs)   bands (ev):

   -12.0018 -11.6079 -11.5040 -11.4250 -11.3011 -11.2502 -11.2001 -11.1656
   -11.1637 -11.1553  -9.3565  -7.8158  -7.6688  -6.6927   1.3275   4.0081
     5.1274   5.2896   5.4601   6.1837   6.6689   6.9805   7.3539   7.9154
     8.1762   8.6135

          k = 0.1667-0.1667 0.4963 (  5618 PWs)   bands (ev):

   -11.9667 -11.8170 -11.6692 -11.3292 -11.2273 -11.2102 -11.2031 -11.1860
   -11.1812 -11.1574  -8.9042  -7.6847  -7.0529  -6.7134   1.3904   3.0709
     4.0229   5.1114   5.1735   5.8633   5.9116   7.0698   7.2269   7.9630
     8.0057   8.2124

          k = 0.1667-0.1667-0.7445 (  5618 PWs)   bands (ev):

   -12.0674 -11.9516 -11.5421 -11.3637 -11.2321 -11.2298 -11.1668 -11.1651
   -11.1393 -11.1354  -8.3189  -8.1089  -6.7532  -6.6022   1.6647   2.1665
     3.9720   4.5530   4.6426   5.7334   6.3301   7.4705   7.5860   7.5917
     7.6892   7.8462

          k = 0.3333-0.1667 0.0000 (  5627 PWs)   bands (ev):

   -12.0137 -11.7374 -11.3366 -11.3165 -11.3106 -11.3106 -11.1948 -11.1661
   -11.1465 -11.1403  -9.2568  -8.4077  -7.6726  -6.8683   1.8671   3.6114
     5.3219   5.5719   6.3336   6.5498   6.6198   7.2860   7.6142   7.6874
     8.1777   8.4301

          k = 0.3333-0.1667 0.2482 (  5625 PWs)   bands (ev):

   -11.9342 -11.7110 -11.4925 -11.4396 -11.2935 -11.2601 -11.1904 -11.1684
   -11.1648 -11.1594  -9.0893  -8.1994  -7.4422  -6.8249   1.8409   3.3626
     4.8375   4.9556   6.0224   6.2762   6.5742   7.2729   7.5527   7.6223
     8.1580   8.4627

          k = 0.3333-0.1667 0.4963 (  5618 PWs)   bands (ev):

   -11.9899 -11.8820 -11.5673 -11.3438 -11.2310 -11.2183 -11.1948 -11.1830
   -11.1737 -11.1605  -8.7148  -8.0006  -6.9616  -6.6816   1.6797   2.5949
     3.9539   4.6728   5.0911   5.4769   6.7631   7.3691   7.5599   7.8958
     8.0364   8.2413

          k = 0.3333-0.1667-0.7445 (  5606 PWs)   bands (ev):

   -12.0972 -12.0006 -11.4800 -11.3221 -11.2331 -11.2297 -11.1651 -11.1634
   -11.1349 -11.1325  -8.3528  -8.1478  -6.7142  -6.5695   1.6010   2.0840
     3.7921   4.3015   4.5926   5.3995   6.9383   7.5578   7.7101   7.8523
     7.8839   8.0244

          k = 0.3333-0.3333 0.0000 (  5620 PWs)   bands (ev):

   -11.9802 -11.8230 -11.3301 -11.3189 -11.3166 -11.3132 -11.1873 -11.1706
   -11.1441 -11.1381  -8.9683  -8.0886  -8.0504  -7.1802   2.4015   3.6198
     5.1308   5.7471   6.0470   6.2001   6.8005   7.2379   7.5717   7.6441
     8.1031   8.2596

          k = 0.3333-0.3333 0.2482 (  5622 PWs)   bands (ev):

   -11.8920 -11.7575 -11.5064 -11.4643 -11.2940 -11.2723 -11.1837 -11.1699
   -11.1657 -11.1623  -8.7970  -8.0207  -7.7158  -7.0687   2.2304   3.0597
     4.9816   5.3660   5.7593   6.0957   6.3769   7.1729   7.4979   7.8319
     8.1224   8.3856

          k = 0.3333-0.3333 0.4963 (  5610 PWs)   bands (ev):

   -11.9607 -11.8212 -11.6369 -11.4224 -11.2262 -11.2106 -11.2017 -11.1856
   -11.1711 -11.1631  -8.4819  -7.9632  -7.0921  -6.7874   1.6569   2.1016
     4.5159   4.8273   4.8416   5.9783   6.2575   7.6385   7.6610   7.8239
     8.0826   8.2597

          k = 0.3333-0.3333-0.7445 (  5600 PWs)   bands (ev):

   -12.0713 -11.9563 -11.5483 -11.3728 -11.2325 -11.2306 -11.1645 -11.1629
   -11.1364 -11.1338  -8.2561  -8.0349  -6.7881  -6.6245   1.3225   1.6511
     4.2779   4.3000   4.5299   6.2893   6.3617   7.7660   7.8139   7.8665
     7.9575   8.0599

     highest occupied level (ev):     8.9027

!    total energy              =    -447.58927337 Ry
     Harris-Foulkes estimate   =    -447.58927337 Ry
     estimated scf accuracy    <          7.9E-21 Ry

     The total energy is the sum of the following terms:

     one-electron contribution =    -125.64523093 Ry
     hartree contribution      =     101.52767825 Ry
     xc contribution           =    -122.07168097 Ry
     ewald contribution        =    -301.40003973 Ry

     convergence has been achieved in  33 iterations

     Forces acting on atoms (cartesian axes, Ry/au):

     atom    1 type  1   force =     0.00000148    0.00000148    0.00000000
     atom    2 type  1   force =     0.00000472    0.00000472    0.00000000
     atom    3 type  2   force =     0.00005408   -0.00005759    0.00000000
     atom    4 type  2   force =    -0.00005759    0.00005408    0.00000000
     atom    5 type  2   force =     0.00005450    0.00005450    0.00000000
     atom    6 type  2   force =    -0.00005719   -0.00005719    0.00000000

     Total force =     0.000158     Total SCF correction =     0.000000


     Computing stress (Cartesian axis) and pressure

          total   stress  (Ry/bohr**3)                   (kbar)     P=   -4.83
  -0.00003349  -0.00000000   0.00000000         -4.93     -0.00      0.00
  -0.00000000  -0.00003349   0.00000000         -0.00     -4.93      0.00
   0.00000000   0.00000000  -0.00003150          0.00      0.00     -4.63


     Writing output data file 666.save
 
     init_run     :      7.32s CPU      7.40s WALL (       1 calls)
     electrons    :    529.14s CPU    531.65s WALL (       1 calls)
     forces       :      1.53s CPU      1.54s WALL (       1 calls)
     stress       :      5.14s CPU      5.16s WALL (       1 calls)

     Called by init_run:
     wfcinit      :      6.92s CPU      6.98s WALL (       1 calls)
     potinit      :      0.15s CPU      0.15s WALL (       1 calls)
     hinit0       :      0.23s CPU      0.23s WALL (       1 calls)

     Called by electrons:
     c_bands      :    449.96s CPU    452.09s WALL (      33 calls)
     sum_band     :     77.09s CPU     77.38s WALL (      33 calls)
     v_of_rho     :      1.69s CPU      1.69s WALL (      34 calls)
     mix_rho      :      0.41s CPU      0.42s WALL (      33 calls)

     Called by c_bands:
     init_us_2    :     11.09s CPU     11.12s WALL (    3588 calls)
     cegterg      :    394.54s CPU    396.46s WALL (    1716 calls)

     Called by sum_band:

     Called by *egterg:
     h_psi        :    349.62s CPU    351.24s WALL (    4821 calls)
     g_psi        :      4.21s CPU      4.23s WALL (    3053 calls)
     cdiaghg      :      8.23s CPU      8.27s WALL (    4769 calls)

     Called by h_psi:
     h_psi:pot    :    348.01s CPU    349.54s WALL (    4821 calls)
     h_psi:calbec :     18.94s CPU     19.01s WALL (    4821 calls)
     vloc_psi     :    310.38s CPU    311.84s WALL (    4821 calls)
     add_vuspsi   :     18.66s CPU     18.67s WALL (    4821 calls)

     General routines
     calbec       :     20.07s CPU     20.14s WALL (    5081 calls)
     fft          :      0.85s CPU      0.84s WALL (     365 calls)
     ffts         :      0.07s CPU      0.08s WALL (      33 calls)
     fftw         :    350.82s CPU    352.87s WALL (  249568 calls)
 
     Parallel routines
     fft_scatt_xy :     34.07s CPU     34.79s WALL (  249966 calls)
     fft_scatt_yz :     37.39s CPU     38.35s WALL (  249966 calls)
 
     PWSCF        :  9m 3.60s CPU     9m 8.87s WALL

 
   This run was terminated on:  19:22:20  28Apr2018            

=------------------------------------------------------------------------------=
   JOB DONE.
=------------------------------------------------------------------------------=
