
     Program PWSCF v.6.2.2 starts on 29Apr2018 at 19:42: 3 

     This program is part of the open-source Quantum ESPRESSO suite
     for quantum simulation of materials; please cite
         "P. Giannozzi et al., J. Phys.:Condens. Matter 21 395502 (2009);
         "P. Giannozzi et al., J. Phys.:Condens. Matter 29 465901 (2017);
          URL http://www.quantum-espresso.org", 
     in publications or presentations arising from this work. More details at
     http://www.quantum-espresso.org/quote

     Parallel version (MPI), running on     2 processors

     MPI processes distributed on     1 nodes
     R & G space division:  proc/nbgrp/npool/nimage =       2
     Waiting for input...
     Reading input from standard input
Warning: card  &IONS ignored
Warning: card  / ignored
Warning: card  &CELL ignored
Warning: card  / ignored

     Current dimensions of program PWSCF are:
     Max number of different atomic species (ntypx) = 10
     Max number of k-points (npk) =  40000
     Max angular momentum in pseudopotentials (lmaxx) =  3

     Subspace diagonalization in iterative solution of the eigenvalue problem:
     a serial algorithm will be used

 
     Parallelization info
     --------------------
     sticks:   dense  smooth     PW     G-vecs:    dense   smooth      PW
     Min        1000    1000    296                22472    22472    3577
     Max        1001    1001    297                22473    22473    3578
     Sum        2001    2001    593                44945    44945    7155
 


     bravais-lattice index     =            6
     lattice parameter (alat)  =       9.1370  a.u.
     unit-cell volume          =     512.3005 (a.u.)^3
     number of atoms/cell      =            6
     number of atomic types    =            2
     number of electrons       =        52.00
     number of Kohn-Sham states=           26
     kinetic-energy cutoff     =      75.0000  Ry
     charge density cutoff     =     300.0000  Ry
     convergence threshold     =      1.0E-20
     mixing beta               =       0.7000
     number of iterations used =            8  plain     mixing
     Exchange-correlation      = PBE ( 1  4  3  4 0 0)

     celldm(1)=   9.137033  celldm(2)=   0.000000  celldm(3)=   0.671598
     celldm(4)=   0.000000  celldm(5)=   0.000000  celldm(6)=   0.000000

     crystal axes: (cart. coord. in units of alat)
               a(1) = (   1.000000   0.000000   0.000000 )  
               a(2) = (   0.000000   1.000000   0.000000 )  
               a(3) = (   0.000000   0.000000   0.671598 )  

     reciprocal axes: (cart. coord. in units 2 pi/alat)
               b(1) = (  1.000000  0.000000  0.000000 )  
               b(2) = (  0.000000  1.000000  0.000000 )  
               b(3) = (  0.000000  0.000000  1.488987 )  


     PseudoPot. # 1 for Sn read from file:
     ../../../Pseudo_potentials/Sn_PBE.upf
     MD5 check sum: 78e6386ae56e929f0568ae8bf606a80c
     Pseudo is Norm-conserving + core correction, Zval = 14.0
     Generated using ONCVPSP code by D. R. Hamann
     Using radial grid of 1628 points,  6 beta functions with: 
                l(1) =   0
                l(2) =   0
                l(3) =   1
                l(4) =   1
                l(5) =   2
                l(6) =   2

     PseudoPot. # 2 for O  read from file:
     ../../../Pseudo_potentials/O_PBE.upf
     MD5 check sum: 3e3f909f7470e8921608ab6b1f57bbae
     Pseudo is Norm-conserving + core correction, Zval =  6.0
     Generated using ONCVPSP code by D. R. Hamann
     Using radial grid of  936 points,  5 beta functions with: 
                l(1) =   0
                l(2) =   0
                l(3) =   1
                l(4) =   1
                l(5) =   2

     atomic species   valence    mass     pseudopotential
        Sn            14.00   118.71000     Sn( 1.00)
        O              6.00    15.99900     O ( 1.00)

      4 Sym. Ops. (no inversion) found



   Cartesian axes

     site n.     atom                  positions (alat units)
         1           Sn  tau(   1) = (  -0.0003320  -0.0003320   0.0000000  )
         2           Sn  tau(   2) = (   0.4996675   0.4996675   0.3357989  )
         3           O   tau(   3) = (   0.8063692   0.1929618   0.3357989  )
         4           O   tau(   4) = (   0.1929618   0.8063692   0.3357989  )
         5           O   tau(   5) = (   0.3063705   0.3063705   0.0000000  )
         6           O   tau(   6) = (   0.6929630   0.6929630   0.0000000  )

     number of k points=   301

     Number of k-points >= 100: set verbosity='high' to print them.

     Dense  grid:    44945 G-vectors     FFT dimensions: (  54,  54,  36)

     Estimated max dynamical RAM per process >     367.44 MB

     Estimated total dynamical RAM >     734.89 MB

     Check: negative/imaginary core charge=   -0.000002    0.000000

     Initial potential from superposition of free atoms

     starting charge   51.99690, renormalised to   52.00000
     Starting wfc are   34 randomized atomic wfcs

     total cpu time spent up to now is       30.8 secs

     Self-consistent Calculation

     iteration #  1     ecut=    75.00 Ry     beta= 0.70
     Davidson diagonalization with overlap
     ethr =  1.00E-02,  avg # of iterations =  2.0

     total cpu time spent up to now is       96.1 secs

     total energy              =    -446.84359689 Ry
     Harris-Foulkes estimate   =    -448.02986298 Ry
     estimated scf accuracy    <       1.60890201 Ry

     iteration #  2     ecut=    75.00 Ry     beta= 0.70
     Davidson diagonalization with overlap
     ethr =  3.09E-03,  avg # of iterations =  3.1

     total cpu time spent up to now is      180.0 secs

     total energy              =    -447.25368187 Ry
     Harris-Foulkes estimate   =    -448.07275377 Ry
     estimated scf accuracy    <       1.69594477 Ry

     iteration #  3     ecut=    75.00 Ry     beta= 0.70
     Davidson diagonalization with overlap
     ethr =  3.09E-03,  avg # of iterations =  3.0

     total cpu time spent up to now is      259.1 secs

     total energy              =    -447.58528347 Ry
     Harris-Foulkes estimate   =    -447.58594348 Ry
     estimated scf accuracy    <       0.00606062 Ry

     iteration #  4     ecut=    75.00 Ry     beta= 0.70
     Davidson diagonalization with overlap
     ethr =  1.17E-05,  avg # of iterations =  3.0

     total cpu time spent up to now is      347.2 secs

     total energy              =    -447.58864398 Ry
     Harris-Foulkes estimate   =    -447.58891551 Ry
     estimated scf accuracy    <       0.00057186 Ry

     iteration #  5     ecut=    75.00 Ry     beta= 0.70
     Davidson diagonalization with overlap
     ethr =  1.10E-06,  avg # of iterations =  2.0

     total cpu time spent up to now is      410.8 secs

     total energy              =    -447.58867716 Ry
     Harris-Foulkes estimate   =    -447.58869177 Ry
     estimated scf accuracy    <       0.00004159 Ry

     iteration #  6     ecut=    75.00 Ry     beta= 0.70
     Davidson diagonalization with overlap
     ethr =  8.00E-08,  avg # of iterations =  3.6

     total cpu time spent up to now is      502.4 secs

     total energy              =    -447.58906615 Ry
     Harris-Foulkes estimate   =    -447.58906734 Ry
     estimated scf accuracy    <       0.00000409 Ry

     iteration #  7     ecut=    75.00 Ry     beta= 0.70
     Davidson diagonalization with overlap
     ethr =  7.86E-09,  avg # of iterations =  3.5

     total cpu time spent up to now is      585.6 secs

     total energy              =    -447.58931814 Ry
     Harris-Foulkes estimate   =    -447.58931888 Ry
     estimated scf accuracy    <       0.00000254 Ry

     iteration #  8     ecut=    75.00 Ry     beta= 0.70
     Davidson diagonalization with overlap
     ethr =  4.88E-09,  avg # of iterations =  3.0

     total cpu time spent up to now is      660.6 secs

     total energy              =    -447.58931825 Ry
     Harris-Foulkes estimate   =    -447.58931852 Ry
     estimated scf accuracy    <       0.00000065 Ry

     iteration #  9     ecut=    75.00 Ry     beta= 0.70
     Davidson diagonalization with overlap
     ethr =  1.25E-09,  avg # of iterations =  2.2

     total cpu time spent up to now is      735.5 secs

     total energy              =    -447.58931829 Ry
     Harris-Foulkes estimate   =    -447.58931833 Ry
     estimated scf accuracy    <       0.00000007 Ry

     iteration # 10     ecut=    75.00 Ry     beta= 0.70
     Davidson diagonalization with overlap
     ethr =  1.30E-10,  avg # of iterations =  3.0

     total cpu time spent up to now is      822.0 secs

     total energy              =    -447.58931831 Ry
     Harris-Foulkes estimate   =    -447.58931831 Ry
     estimated scf accuracy    <          3.1E-09 Ry

     iteration # 11     ecut=    75.00 Ry     beta= 0.70
     Davidson diagonalization with overlap
     ethr =  6.02E-12,  avg # of iterations =  3.4

     total cpu time spent up to now is      899.9 secs

     total energy              =    -447.58931831 Ry
     Harris-Foulkes estimate   =    -447.58931831 Ry
     estimated scf accuracy    <          8.1E-11 Ry

     iteration # 12     ecut=    75.00 Ry     beta= 0.70
     Davidson diagonalization with overlap
     ethr =  1.55E-13,  avg # of iterations =  3.0

     total cpu time spent up to now is      980.8 secs

     total energy              =    -447.58931831 Ry
     Harris-Foulkes estimate   =    -447.58931831 Ry
     estimated scf accuracy    <          1.2E-11 Ry

     iteration # 13     ecut=    75.00 Ry     beta= 0.70
     Davidson diagonalization with overlap
     ethr =  1.00E-13,  avg # of iterations =  2.2

     total cpu time spent up to now is     1048.6 secs

     total energy              =    -447.58931831 Ry
     Harris-Foulkes estimate   =    -447.58931831 Ry
     estimated scf accuracy    <          4.0E-12 Ry

     iteration # 14     ecut=    75.00 Ry     beta= 0.70
     Davidson diagonalization with overlap
     ethr =  1.00E-13,  avg # of iterations =  1.0

     total cpu time spent up to now is     1107.9 secs

     total energy              =    -447.58931831 Ry
     Harris-Foulkes estimate   =    -447.58931831 Ry
     estimated scf accuracy    <          1.5E-13 Ry

     iteration # 15     ecut=    75.00 Ry     beta= 0.70
     Davidson diagonalization with overlap
     ethr =  1.00E-13,  avg # of iterations =  1.0

     total cpu time spent up to now is     1167.9 secs

     total energy              =    -447.58931831 Ry
     Harris-Foulkes estimate   =    -447.58931831 Ry
     estimated scf accuracy    <          9.3E-15 Ry

     iteration # 16     ecut=    75.00 Ry     beta= 0.70
     Davidson diagonalization with overlap
     ethr =  1.00E-13,  avg # of iterations =  1.0

     total cpu time spent up to now is     1228.1 secs

     total energy              =    -447.58931831 Ry
     Harris-Foulkes estimate   =    -447.58931831 Ry
     estimated scf accuracy    <          2.8E-14 Ry

     iteration # 17     ecut=    75.00 Ry     beta= 0.70
     Davidson diagonalization with overlap
     ethr =  1.00E-13,  avg # of iterations =  1.0

     total cpu time spent up to now is     1288.3 secs

     total energy              =    -447.58931831 Ry
     Harris-Foulkes estimate   =    -447.58931831 Ry
     estimated scf accuracy    <          1.4E-14 Ry

     iteration # 18     ecut=    75.00 Ry     beta= 0.70
     Davidson diagonalization with overlap
     ethr =  1.00E-13,  avg # of iterations =  1.0

     total cpu time spent up to now is     1349.1 secs

     total energy              =    -447.58931831 Ry
     Harris-Foulkes estimate   =    -447.58931831 Ry
     estimated scf accuracy    <          3.1E-16 Ry

     iteration # 19     ecut=    75.00 Ry     beta= 0.70
     Davidson diagonalization with overlap
     ethr =  1.00E-13,  avg # of iterations =  1.0

     total cpu time spent up to now is     1409.1 secs

     total energy              =    -447.58931831 Ry
     Harris-Foulkes estimate   =    -447.58931831 Ry
     estimated scf accuracy    <          8.8E-17 Ry

     iteration # 20     ecut=    75.00 Ry     beta= 0.70
     Davidson diagonalization with overlap
     ethr =  1.00E-13,  avg # of iterations =  1.0

     total cpu time spent up to now is     1469.3 secs

     total energy              =    -447.58931831 Ry
     Harris-Foulkes estimate   =    -447.58931831 Ry
     estimated scf accuracy    <          2.1E-16 Ry

     iteration # 21     ecut=    75.00 Ry     beta= 0.70
     Davidson diagonalization with overlap
     ethr =  1.00E-13,  avg # of iterations =  1.0

     total cpu time spent up to now is     1529.1 secs

     total energy              =    -447.58931831 Ry
     Harris-Foulkes estimate   =    -447.58931831 Ry
     estimated scf accuracy    <          2.9E-17 Ry

     iteration # 22     ecut=    75.00 Ry     beta= 0.70
     Davidson diagonalization with overlap
     ethr =  1.00E-13,  avg # of iterations =  1.0

     total cpu time spent up to now is     1588.3 secs

     total energy              =    -447.58931831 Ry
     Harris-Foulkes estimate   =    -447.58931831 Ry
     estimated scf accuracy    <          1.3E-17 Ry

     iteration # 23     ecut=    75.00 Ry     beta= 0.70
     Davidson diagonalization with overlap
     ethr =  1.00E-13,  avg # of iterations =  1.0

     total cpu time spent up to now is     1647.7 secs

     total energy              =    -447.58931831 Ry
     Harris-Foulkes estimate   =    -447.58931831 Ry
     estimated scf accuracy    <          3.5E-18 Ry

     iteration # 24     ecut=    75.00 Ry     beta= 0.70
     Davidson diagonalization with overlap
     ethr =  1.00E-13,  avg # of iterations =  1.0

     total cpu time spent up to now is     1706.9 secs

     total energy              =    -447.58931831 Ry
     Harris-Foulkes estimate   =    -447.58931831 Ry
     estimated scf accuracy    <          1.6E-19 Ry

     iteration # 25     ecut=    75.00 Ry     beta= 0.70
     Davidson diagonalization with overlap
     ethr =  1.00E-13,  avg # of iterations =  1.0

     total cpu time spent up to now is     1766.1 secs

     total energy              =    -447.58931831 Ry
     Harris-Foulkes estimate   =    -447.58931831 Ry
     estimated scf accuracy    <          2.1E-19 Ry

     iteration # 26     ecut=    75.00 Ry     beta= 0.70
     Davidson diagonalization with overlap
     ethr =  1.00E-13,  avg # of iterations =  1.0

     total cpu time spent up to now is     1825.2 secs

     total energy              =    -447.58931831 Ry
     Harris-Foulkes estimate   =    -447.58931831 Ry
     estimated scf accuracy    <          1.8E-19 Ry

     iteration # 27     ecut=    75.00 Ry     beta= 0.70
     Davidson diagonalization with overlap
     ethr =  1.00E-13,  avg # of iterations =  1.0

     total cpu time spent up to now is     1884.9 secs

     total energy              =    -447.58931831 Ry
     Harris-Foulkes estimate   =    -447.58931831 Ry
     estimated scf accuracy    <          1.6E-20 Ry

     iteration # 28     ecut=    75.00 Ry     beta= 0.70
     Davidson diagonalization with overlap
     ethr =  1.00E-13,  avg # of iterations =  1.0

     total cpu time spent up to now is     1946.1 secs

     total energy              =    -447.58931831 Ry
     Harris-Foulkes estimate   =    -447.58931831 Ry
     estimated scf accuracy    <          1.5E-20 Ry

     iteration # 29     ecut=    75.00 Ry     beta= 0.70
     Davidson diagonalization with overlap
     ethr =  1.00E-13,  avg # of iterations =  1.0

     total cpu time spent up to now is     2007.3 secs

     total energy              =    -447.58931831 Ry
     Harris-Foulkes estimate   =    -447.58931831 Ry
     estimated scf accuracy    <          1.8E-20 Ry

     iteration # 30     ecut=    75.00 Ry     beta= 0.70
     Davidson diagonalization with overlap
     ethr =  1.00E-13,  avg # of iterations =  1.0

     total cpu time spent up to now is     2069.8 secs

     End of self-consistent calculation

     Number of k-points >= 100: set verbosity='high' to print the bands.

     highest occupied level (ev):     8.9024

!    total energy              =    -447.58931831 Ry
     Harris-Foulkes estimate   =    -447.58931831 Ry
     estimated scf accuracy    <          3.6E-21 Ry

     The total energy is the sum of the following terms:

     one-electron contribution =    -125.64517910 Ry
     hartree contribution      =     101.52747703 Ry
     xc contribution           =    -122.07157651 Ry
     ewald contribution        =    -301.40003973 Ry

     convergence has been achieved in  30 iterations

     Forces acting on atoms (cartesian axes, Ry/au):

     atom    1 type  1   force =     0.00000148    0.00000148    0.00000000
     atom    2 type  1   force =     0.00000472    0.00000472    0.00000000
     atom    3 type  2   force =     0.00004329   -0.00004680    0.00000000
     atom    4 type  2   force =    -0.00004680    0.00004329    0.00000000
     atom    5 type  2   force =     0.00004371    0.00004371    0.00000000
     atom    6 type  2   force =    -0.00004641   -0.00004641    0.00000000

     Total force =     0.000128     Total SCF correction =     0.000000


     Computing stress (Cartesian axis) and pressure

          total   stress  (Ry/bohr**3)                   (kbar)     P=   -4.76
  -0.00003295  -0.00000000   0.00000000         -4.85     -0.00      0.00
  -0.00000000  -0.00003295   0.00000000         -0.00     -4.85      0.00
   0.00000000   0.00000000  -0.00003124          0.00      0.00     -4.60


     Writing output data file 121212.save
 
     init_run     :     29.09s CPU     30.03s WALL (       1 calls)
     electrons    :   2026.25s CPU   2039.05s WALL (       1 calls)
     forces       :      7.74s CPU      7.77s WALL (       1 calls)
     stress       :     28.73s CPU     28.83s WALL (       1 calls)

     Called by init_run:
     wfcinit      :     28.41s CPU     28.88s WALL (       1 calls)
     potinit      :      0.10s CPU      0.10s WALL (       1 calls)
     hinit0       :      0.29s CPU      0.48s WALL (       1 calls)

     Called by electrons:
     c_bands      :   1734.60s CPU   1745.90s WALL (      30 calls)
     sum_band     :    290.17s CPU    291.59s WALL (      30 calls)
     v_of_rho     :      1.13s CPU      1.13s WALL (      31 calls)
     mix_rho      :      0.35s CPU      0.36s WALL (      30 calls)

     Called by c_bands:
     init_us_2    :     44.50s CPU     44.74s WALL (   18963 calls)
     cegterg      :   1552.89s CPU   1562.97s WALL (    9030 calls)

     Called by sum_band:

     Called by *egterg:
     h_psi        :   1348.58s CPU   1356.83s WALL (   25585 calls)
     g_psi        :     10.45s CPU     10.53s WALL (   16254 calls)
     cdiaghg      :     33.38s CPU     33.65s WALL (   25284 calls)

     Called by h_psi:
     h_psi:pot    :   1335.16s CPU   1343.03s WALL (   25585 calls)
     h_psi:calbec :     81.76s CPU     82.15s WALL (   25585 calls)
     vloc_psi     :   1161.22s CPU   1168.41s WALL (   25585 calls)
     add_vuspsi   :     91.99s CPU     92.28s WALL (   25585 calls)

     General routines
     calbec       :     87.66s CPU     88.10s WALL (   27090 calls)
     fft          :      0.56s CPU      0.56s WALL (     335 calls)
     ffts         :      0.05s CPU      0.05s WALL (      30 calls)
     fftw         :   1268.46s CPU   1277.80s WALL ( 1327218 calls)
 
     Parallel routines
     fft_scatt_xy :    122.71s CPU    123.44s WALL ( 1327583 calls)
     fft_scatt_yz :    181.56s CPU    183.94s WALL ( 1327583 calls)
 
     PWSCF        : 34m53.03s CPU    35m24.57s WALL

 
   This run was terminated on:  20:17:27  29Apr2018            

=------------------------------------------------------------------------------=
   JOB DONE.
=------------------------------------------------------------------------------=
