
     Program PWSCF v.6.2.2 starts on 29Apr2018 at 10:59:10 

     This program is part of the open-source Quantum ESPRESSO suite
     for quantum simulation of materials; please cite
         "P. Giannozzi et al., J. Phys.:Condens. Matter 21 395502 (2009);
         "P. Giannozzi et al., J. Phys.:Condens. Matter 29 465901 (2017);
          URL http://www.quantum-espresso.org", 
     in publications or presentations arising from this work. More details at
     http://www.quantum-espresso.org/quote

     Parallel version (MPI), running on     2 processors

     MPI processes distributed on     1 nodes
     R & G space division:  proc/nbgrp/npool/nimage =       2
     Waiting for input...
     Reading input from standard input
Warning: card  &IONS ignored
Warning: card  / ignored
Warning: card  &CELL ignored
Warning: card  / ignored

     Current dimensions of program PWSCF are:
     Max number of different atomic species (ntypx) = 10
     Max number of k-points (npk) =  40000
     Max angular momentum in pseudopotentials (lmaxx) =  3

     Subspace diagonalization in iterative solution of the eigenvalue problem:
     a serial algorithm will be used

 
     Parallelization info
     --------------------
     sticks:   dense  smooth     PW     G-vecs:    dense   smooth      PW
     Min        1000    1000    296                22472    22472    3577
     Max        1001    1001    297                22473    22473    3578
     Sum        2001    2001    593                44945    44945    7155
 


     bravais-lattice index     =            6
     lattice parameter (alat)  =       9.1370  a.u.
     unit-cell volume          =     512.3005 (a.u.)^3
     number of atoms/cell      =            6
     number of atomic types    =            2
     number of electrons       =        52.00
     number of Kohn-Sham states=           26
     kinetic-energy cutoff     =      75.0000  Ry
     charge density cutoff     =     300.0000  Ry
     convergence threshold     =      1.0E-20
     mixing beta               =       0.7000
     number of iterations used =            8  plain     mixing
     Exchange-correlation      = PBE ( 1  4  3  4 0 0)

     celldm(1)=   9.137033  celldm(2)=   0.000000  celldm(3)=   0.671598
     celldm(4)=   0.000000  celldm(5)=   0.000000  celldm(6)=   0.000000

     crystal axes: (cart. coord. in units of alat)
               a(1) = (   1.000000   0.000000   0.000000 )  
               a(2) = (   0.000000   1.000000   0.000000 )  
               a(3) = (   0.000000   0.000000   0.671598 )  

     reciprocal axes: (cart. coord. in units 2 pi/alat)
               b(1) = (  1.000000  0.000000  0.000000 )  
               b(2) = (  0.000000  1.000000  0.000000 )  
               b(3) = (  0.000000  0.000000  1.488987 )  


     PseudoPot. # 1 for Sn read from file:
     ../../../Pseudo_potentials/Sn_PBE.upf
     MD5 check sum: 78e6386ae56e929f0568ae8bf606a80c
     Pseudo is Norm-conserving + core correction, Zval = 14.0
     Generated using ONCVPSP code by D. R. Hamann
     Using radial grid of 1628 points,  6 beta functions with: 
                l(1) =   0
                l(2) =   0
                l(3) =   1
                l(4) =   1
                l(5) =   2
                l(6) =   2

     PseudoPot. # 2 for O  read from file:
     ../../../Pseudo_potentials/O_PBE.upf
     MD5 check sum: 3e3f909f7470e8921608ab6b1f57bbae
     Pseudo is Norm-conserving + core correction, Zval =  6.0
     Generated using ONCVPSP code by D. R. Hamann
     Using radial grid of  936 points,  5 beta functions with: 
                l(1) =   0
                l(2) =   0
                l(3) =   1
                l(4) =   1
                l(5) =   2

     atomic species   valence    mass     pseudopotential
        Sn            14.00   118.71000     Sn( 1.00)
        O              6.00    15.99900     O ( 1.00)

      4 Sym. Ops. (no inversion) found



   Cartesian axes

     site n.     atom                  positions (alat units)
         1           Sn  tau(   1) = (  -0.0003320  -0.0003320   0.0000000  )
         2           Sn  tau(   2) = (   0.4996675   0.4996675   0.3357989  )
         3           O   tau(   3) = (   0.8063692   0.1929618   0.3357989  )
         4           O   tau(   4) = (   0.1929618   0.8063692   0.3357989  )
         5           O   tau(   5) = (   0.3063705   0.3063705   0.0000000  )
         6           O   tau(   6) = (   0.6929630   0.6929630   0.0000000  )

     number of k points=   186

     Number of k-points >= 100: set verbosity='high' to print them.

     Dense  grid:    44945 G-vectors     FFT dimensions: (  54,  54,  36)

     Estimated max dynamical RAM per process >     239.29 MB

     Estimated total dynamical RAM >     478.57 MB

     Check: negative/imaginary core charge=   -0.000002    0.000000

     Initial potential from superposition of free atoms

     starting charge   51.99690, renormalised to   52.00000
     Starting wfc are   34 randomized atomic wfcs

     total cpu time spent up to now is       16.7 secs

     Self-consistent Calculation

     iteration #  1     ecut=    75.00 Ry     beta= 0.70
     Davidson diagonalization with overlap
     ethr =  1.00E-02,  avg # of iterations =  2.0

     total cpu time spent up to now is       54.0 secs

     total energy              =    -446.84313584 Ry
     Harris-Foulkes estimate   =    -448.02967552 Ry
     estimated scf accuracy    <       1.60917164 Ry

     iteration #  2     ecut=    75.00 Ry     beta= 0.70
     Davidson diagonalization with overlap
     ethr =  3.09E-03,  avg # of iterations =  3.1

     total cpu time spent up to now is       98.8 secs

     total energy              =    -447.25387778 Ry
     Harris-Foulkes estimate   =    -448.07292518 Ry
     estimated scf accuracy    <       1.69578231 Ry

     iteration #  3     ecut=    75.00 Ry     beta= 0.70
     Davidson diagonalization with overlap
     ethr =  3.09E-03,  avg # of iterations =  3.0

     total cpu time spent up to now is      141.2 secs

     total energy              =    -447.58563175 Ry
     Harris-Foulkes estimate   =    -447.58630057 Ry
     estimated scf accuracy    <       0.00608954 Ry

     iteration #  4     ecut=    75.00 Ry     beta= 0.70
     Davidson diagonalization with overlap
     ethr =  1.17E-05,  avg # of iterations =  3.0

     total cpu time spent up to now is      188.4 secs

     total energy              =    -447.58918048 Ry
     Harris-Foulkes estimate   =    -447.58944971 Ry
     estimated scf accuracy    <       0.00056805 Ry

     iteration #  5     ecut=    75.00 Ry     beta= 0.70
     Davidson diagonalization with overlap
     ethr =  1.09E-06,  avg # of iterations =  2.1

     total cpu time spent up to now is      222.7 secs

     total energy              =    -447.58921211 Ry
     Harris-Foulkes estimate   =    -447.58922779 Ry
     estimated scf accuracy    <       0.00004349 Ry

     iteration #  6     ecut=    75.00 Ry     beta= 0.70
     Davidson diagonalization with overlap
     ethr =  8.36E-08,  avg # of iterations =  3.5

     total cpu time spent up to now is      271.9 secs

     total energy              =    -447.58922762 Ry
     Harris-Foulkes estimate   =    -447.58923002 Ry
     estimated scf accuracy    <       0.00000655 Ry

     iteration #  7     ecut=    75.00 Ry     beta= 0.70
     Davidson diagonalization with overlap
     ethr =  1.26E-08,  avg # of iterations =  3.1

     total cpu time spent up to now is      314.2 secs

     total energy              =    -447.58931603 Ry
     Harris-Foulkes estimate   =    -447.58931679 Ry
     estimated scf accuracy    <       0.00000212 Ry

     iteration #  8     ecut=    75.00 Ry     beta= 0.70
     Davidson diagonalization with overlap
     ethr =  4.08E-09,  avg # of iterations =  3.4

     total cpu time spent up to now is      356.1 secs

     total energy              =    -447.58931639 Ry
     Harris-Foulkes estimate   =    -447.58931650 Ry
     estimated scf accuracy    <       0.00000029 Ry

     iteration #  9     ecut=    75.00 Ry     beta= 0.70
     Davidson diagonalization with overlap
     ethr =  5.52E-10,  avg # of iterations =  2.7

     total cpu time spent up to now is      396.1 secs

     total energy              =    -447.58931641 Ry
     Harris-Foulkes estimate   =    -447.58931642 Ry
     estimated scf accuracy    <       0.00000003 Ry

     iteration # 10     ecut=    75.00 Ry     beta= 0.70
     Davidson diagonalization with overlap
     ethr =  5.27E-11,  avg # of iterations =  3.1

     total cpu time spent up to now is      437.9 secs

     total energy              =    -447.58931642 Ry
     Harris-Foulkes estimate   =    -447.58931642 Ry
     estimated scf accuracy    <          2.1E-09 Ry

     iteration # 11     ecut=    75.00 Ry     beta= 0.70
     Davidson diagonalization with overlap
     ethr =  3.96E-12,  avg # of iterations =  2.8

     total cpu time spent up to now is      479.8 secs

     total energy              =    -447.58931642 Ry
     Harris-Foulkes estimate   =    -447.58931642 Ry
     estimated scf accuracy    <          5.4E-11 Ry

     iteration # 12     ecut=    75.00 Ry     beta= 0.70
     Davidson diagonalization with overlap
     ethr =  1.03E-13,  avg # of iterations =  3.1

     total cpu time spent up to now is      526.5 secs

     total energy              =    -447.58931642 Ry
     Harris-Foulkes estimate   =    -447.58931642 Ry
     estimated scf accuracy    <          5.5E-12 Ry

     iteration # 13     ecut=    75.00 Ry     beta= 0.70
     Davidson diagonalization with overlap
     ethr =  1.00E-13,  avg # of iterations =  1.8

     total cpu time spent up to now is      560.5 secs

     total energy              =    -447.58931642 Ry
     Harris-Foulkes estimate   =    -447.58931642 Ry
     estimated scf accuracy    <          7.8E-13 Ry

     iteration # 14     ecut=    75.00 Ry     beta= 0.70
     Davidson diagonalization with overlap
     ethr =  1.00E-13,  avg # of iterations =  1.0

     total cpu time spent up to now is      593.4 secs

     total energy              =    -447.58931642 Ry
     Harris-Foulkes estimate   =    -447.58931642 Ry
     estimated scf accuracy    <          1.0E-13 Ry

     iteration # 15     ecut=    75.00 Ry     beta= 0.70
     Davidson diagonalization with overlap
     ethr =  1.00E-13,  avg # of iterations =  1.0

     total cpu time spent up to now is      626.3 secs

     total energy              =    -447.58931642 Ry
     Harris-Foulkes estimate   =    -447.58931642 Ry
     estimated scf accuracy    <          5.6E-15 Ry

     iteration # 16     ecut=    75.00 Ry     beta= 0.70
     Davidson diagonalization with overlap
     ethr =  1.00E-13,  avg # of iterations =  1.0

     total cpu time spent up to now is      659.1 secs

     total energy              =    -447.58931642 Ry
     Harris-Foulkes estimate   =    -447.58931642 Ry
     estimated scf accuracy    <          4.0E-15 Ry

     iteration # 17     ecut=    75.00 Ry     beta= 0.70
     Davidson diagonalization with overlap
     ethr =  1.00E-13,  avg # of iterations =  1.0

     total cpu time spent up to now is      691.9 secs

     total energy              =    -447.58931642 Ry
     Harris-Foulkes estimate   =    -447.58931642 Ry
     estimated scf accuracy    <          7.0E-16 Ry

     iteration # 18     ecut=    75.00 Ry     beta= 0.70
     Davidson diagonalization with overlap
     ethr =  1.00E-13,  avg # of iterations =  1.0

     total cpu time spent up to now is      724.8 secs

     total energy              =    -447.58931642 Ry
     Harris-Foulkes estimate   =    -447.58931642 Ry
     estimated scf accuracy    <          3.0E-17 Ry

     iteration # 19     ecut=    75.00 Ry     beta= 0.70
     Davidson diagonalization with overlap
     ethr =  1.00E-13,  avg # of iterations =  1.0

     total cpu time spent up to now is      757.5 secs

     total energy              =    -447.58931642 Ry
     Harris-Foulkes estimate   =    -447.58931642 Ry
     estimated scf accuracy    <          4.6E-17 Ry

     iteration # 20     ecut=    75.00 Ry     beta= 0.70
     Davidson diagonalization with overlap
     ethr =  1.00E-13,  avg # of iterations =  1.0

     total cpu time spent up to now is      790.4 secs

     total energy              =    -447.58931642 Ry
     Harris-Foulkes estimate   =    -447.58931642 Ry
     estimated scf accuracy    <          3.0E-17 Ry

     iteration # 21     ecut=    75.00 Ry     beta= 0.70
     Davidson diagonalization with overlap
     ethr =  1.00E-13,  avg # of iterations =  1.0

     total cpu time spent up to now is      823.2 secs

     total energy              =    -447.58931642 Ry
     Harris-Foulkes estimate   =    -447.58931642 Ry
     estimated scf accuracy    <          3.9E-18 Ry

     iteration # 22     ecut=    75.00 Ry     beta= 0.70
     Davidson diagonalization with overlap
     ethr =  1.00E-13,  avg # of iterations =  1.0

     total cpu time spent up to now is      856.1 secs

     total energy              =    -447.58931642 Ry
     Harris-Foulkes estimate   =    -447.58931642 Ry
     estimated scf accuracy    <          4.3E-19 Ry

     iteration # 23     ecut=    75.00 Ry     beta= 0.70
     Davidson diagonalization with overlap
     ethr =  1.00E-13,  avg # of iterations =  1.0

     total cpu time spent up to now is      888.7 secs

     total energy              =    -447.58931642 Ry
     Harris-Foulkes estimate   =    -447.58931642 Ry
     estimated scf accuracy    <          1.2E-19 Ry

     iteration # 24     ecut=    75.00 Ry     beta= 0.70
     Davidson diagonalization with overlap
     ethr =  1.00E-13,  avg # of iterations =  1.0

     total cpu time spent up to now is      921.2 secs

     total energy              =    -447.58931642 Ry
     Harris-Foulkes estimate   =    -447.58931642 Ry
     estimated scf accuracy    <          2.0E-19 Ry

     iteration # 25     ecut=    75.00 Ry     beta= 0.70
     Davidson diagonalization with overlap
     ethr =  1.00E-13,  avg # of iterations =  1.0

     total cpu time spent up to now is      953.7 secs

     total energy              =    -447.58931642 Ry
     Harris-Foulkes estimate   =    -447.58931642 Ry
     estimated scf accuracy    <          1.2E-19 Ry

     iteration # 26     ecut=    75.00 Ry     beta= 0.70
     Davidson diagonalization with overlap
     ethr =  1.00E-13,  avg # of iterations =  1.0

     total cpu time spent up to now is      986.2 secs

     total energy              =    -447.58931642 Ry
     Harris-Foulkes estimate   =    -447.58931642 Ry
     estimated scf accuracy    <          1.9E-20 Ry

     iteration # 27     ecut=    75.00 Ry     beta= 0.70
     Davidson diagonalization with overlap
     ethr =  1.00E-13,  avg # of iterations =  1.0

     total cpu time spent up to now is     1018.5 secs

     total energy              =    -447.58931642 Ry
     Harris-Foulkes estimate   =    -447.58931642 Ry
     estimated scf accuracy    <          1.0E-19 Ry

     iteration # 28     ecut=    75.00 Ry     beta= 0.70
     Davidson diagonalization with overlap
     ethr =  1.00E-13,  avg # of iterations =  1.0

     total cpu time spent up to now is     1051.0 secs

     total energy              =    -447.58931642 Ry
     Harris-Foulkes estimate   =    -447.58931642 Ry
     estimated scf accuracy    <          2.9E-20 Ry

     iteration # 29     ecut=    75.00 Ry     beta= 0.70
     Davidson diagonalization with overlap
     ethr =  1.00E-13,  avg # of iterations =  1.0

     total cpu time spent up to now is     1083.3 secs

     End of self-consistent calculation

     Number of k-points >= 100: set verbosity='high' to print the bands.

     highest occupied level (ev):     8.9024

!    total energy              =    -447.58931642 Ry
     Harris-Foulkes estimate   =    -447.58931642 Ry
     estimated scf accuracy    <          4.5E-21 Ry

     The total energy is the sum of the following terms:

     one-electron contribution =    -125.64517762 Ry
     hartree contribution      =     101.52747873 Ry
     xc contribution           =    -122.07157780 Ry
     ewald contribution        =    -301.40003973 Ry

     convergence has been achieved in  29 iterations

     Forces acting on atoms (cartesian axes, Ry/au):

     atom    1 type  1   force =     0.00000148    0.00000148    0.00000000
     atom    2 type  1   force =     0.00000472    0.00000472    0.00000000
     atom    3 type  2   force =     0.00004366   -0.00004717   -0.00000000
     atom    4 type  2   force =    -0.00004717    0.00004366    0.00000000
     atom    5 type  2   force =     0.00004408    0.00004408    0.00000000
     atom    6 type  2   force =    -0.00004677   -0.00004677    0.00000000

     Total force =     0.000129     Total SCF correction =     0.000000


     Computing stress (Cartesian axis) and pressure

          total   stress  (Ry/bohr**3)                   (kbar)     P=   -4.77
  -0.00003301  -0.00000000   0.00000000         -4.86     -0.00      0.00
  -0.00000000  -0.00003301  -0.00000000         -0.00     -4.86     -0.00
   0.00000000   0.00000000  -0.00003126          0.00      0.00     -4.60


     Writing output data file 101010.save
 
     init_run     :     16.23s CPU     16.50s WALL (       1 calls)
     electrons    :   1053.34s CPU   1066.69s WALL (       1 calls)
     forces       :      3.10s CPU      3.13s WALL (       1 calls)
     stress       :     10.14s CPU     10.22s WALL (       1 calls)

     Called by init_run:
     wfcinit      :     15.93s CPU     16.16s WALL (       1 calls)
     potinit      :      0.09s CPU      0.09s WALL (       1 calls)
     hinit0       :      0.17s CPU      0.18s WALL (       1 calls)

     Called by electrons:
     c_bands      :    900.37s CPU    911.85s WALL (      29 calls)
     sum_band     :    151.86s CPU    153.57s WALL (      29 calls)
     v_of_rho     :      0.90s CPU      0.91s WALL (      30 calls)
     mix_rho      :      0.22s CPU      0.22s WALL (      29 calls)

     Called by c_bands:
     init_us_2    :     19.07s CPU     19.24s WALL (   11346 calls)
     cegterg      :    803.60s CPU    814.08s WALL (    5394 calls)

     Called by sum_band:

     Called by *egterg:
     h_psi        :    716.11s CPU    724.60s WALL (   15353 calls)
     g_psi        :      6.15s CPU      6.23s WALL (    9773 calls)
     cdiaghg      :     16.90s CPU     16.97s WALL (   15167 calls)

     Called by h_psi:
     h_psi:pot    :    713.01s CPU    721.40s WALL (   15353 calls)
     h_psi:calbec :     38.18s CPU     38.61s WALL (   15353 calls)
     vloc_psi     :    637.24s CPU    644.88s WALL (   15353 calls)
     add_vuspsi   :     37.55s CPU     37.87s WALL (   15353 calls)

     General routines
     calbec       :     40.93s CPU     41.36s WALL (   16283 calls)
     fft          :      0.48s CPU      0.49s WALL (     325 calls)
     ffts         :      0.05s CPU      0.04s WALL (      29 calls)
     fftw         :    720.10s CPU    728.10s WALL (  795030 calls)
 
     Parallel routines
     fft_scatt_xy :     71.40s CPU     72.22s WALL (  795384 calls)
     fft_scatt_yz :     90.66s CPU     91.41s WALL (  795384 calls)
 
     PWSCF        : 18m 3.34s CPU    18m28.32s WALL

 
   This run was terminated on:  11:17:38  29Apr2018            

=------------------------------------------------------------------------------=
   JOB DONE.
=------------------------------------------------------------------------------=
