
     Program PHONON v.6.2.2 starts on  3May2018 at 16:51:56 

     This program is part of the open-source Quantum ESPRESSO suite
     for quantum simulation of materials; please cite
         "P. Giannozzi et al., J. Phys.:Condens. Matter 21 395502 (2009);
         "P. Giannozzi et al., J. Phys.:Condens. Matter 29 465901 (2017);
          URL http://www.quantum-espresso.org", 
     in publications or presentations arising from this work. More details at
     http://www.quantum-espresso.org/quote

     Parallel version (MPI), running on     4 processors

     MPI processes distributed on     2 nodes
     R & G space division:  proc/nbgrp/npool/nimage =       4

     Reading data from directory:
     ./333.save/

     IMPORTANT: XC functional enforced from input :
     Exchange-correlation      = PBE ( 1  4  3  4 0 0)
     Any further DFT definition will be discarded
     Please, verify this is what you really want

 
     Parallelization info
     --------------------
     sticks:   dense  smooth     PW     G-vecs:    dense   smooth      PW
     Min         500     500    147                11236    11236    1788
     Max         501     501    149                11237    11237    1789
     Sum        2001    2001    593                44945    44945    7155
 

     Check: negative/imaginary core charge=   -0.000002    0.000000


     Dynamical matrices for ( 3, 3, 3)  uniform grid of q-points
     (   8 q-points):
       N         xq(1)         xq(2)         xq(3) 
       1   0.000000000   0.000000000   0.000000000
       2   0.000000000   0.000000000   0.496328851
       3   0.000000000   0.333333333   0.000000000
       4   0.000000000   0.333333333   0.496328851
       5   0.333333333   0.333333333   0.000000000
       6   0.333333333   0.333333333   0.496328851
       7   0.333333333  -0.333333333   0.000000000
       8   0.333333333  -0.333333333   0.496328851

     Calculation of q =    0.0000000   0.0000000   0.0000000

     Phonon dispersions for SnO2                                                

     bravais-lattice index     =            6
     lattice parameter (alat)  =       9.1370  a.u.
     unit-cell volume          =     512.3005 (a.u.)^3
     number of atoms/cell      =            6
     number of atomic types    =            2
     kinetic-energy cut-off    =      75.0000  Ry
     charge density cut-off    =     300.0000  Ry
     convergence threshold     =      1.0E-14
     beta                      =       0.7000
     number of iterations used =            4
     Exchange-correlation      = PBE ( 1  4  3  4 0 0)


     celldm(1)=    9.13703  celldm(2)=    1.00000  celldm(3)=    0.67160
     celldm(4)=    0.00000  celldm(5)=    0.00000  celldm(6)=    0.00000

     crystal axes: (cart. coord. in units of alat)
               a(1) = (  1.0000  0.0000  0.0000 )  
               a(2) = (  0.0000  1.0000  0.0000 )  
               a(3) = (  0.0000  0.0000  0.6716 )  

     reciprocal axes: (cart. coord. in units 2 pi/alat)
               b(1) = (  1.0000  0.0000  0.0000 )  
               b(2) = (  0.0000  1.0000  0.0000 )  
               b(3) = (  0.0000  0.0000  1.4890 )  


     Atoms inside the unit cell: 

     Cartesian axes

     site n.  atom      mass           positions (alat units)
        1     Sn 118.7100   tau(    1) = (   -0.00033   -0.00033    0.00000  )
        2     Sn 118.7100   tau(    2) = (    0.49967    0.49967    0.33580  )
        3     O   15.9990   tau(    3) = (    0.80637    0.19296    0.33580  )
        4     O   15.9990   tau(    4) = (    0.19296    0.80637    0.33580  )
        5     O   15.9990   tau(    5) = (    0.30637    0.30637    0.00000  )
        6     O   15.9990   tau(    6) = (    0.69296    0.69296    0.00000  )

     Computing dynamical matrix for 
                    q = (   0.0000000   0.0000000   0.0000000 )
 
      5 Sym.Ops. (with q -> -q+G )


     G cutoff =  634.4127  (  11237 G-vectors)     FFT grid: ( 54, 54, 36)
     number of k points=    21

     PseudoPot. # 1 for Sn read from file:
     ../../../Pseudo_potentials/Sn_PBE.upf
     MD5 check sum: 78e6386ae56e929f0568ae8bf606a80c
     Pseudo is Norm-conserving + core correction, Zval = 14.0
     Generated using ONCVPSP code by D. R. Hamann
     Using radial grid of 1628 points,  6 beta functions with: 
                l(1) =   0
                l(2) =   0
                l(3) =   1
                l(4) =   1
                l(5) =   2
                l(6) =   2

     PseudoPot. # 2 for O  read from file:
     ../../../Pseudo_potentials/O_PBE.upf
     MD5 check sum: 3e3f909f7470e8921608ab6b1f57bbae
     Pseudo is Norm-conserving + core correction, Zval =  6.0
     Generated using ONCVPSP code by D. R. Hamann
     Using radial grid of  936 points,  5 beta functions with: 
                l(1) =   0
                l(2) =   0
                l(3) =   1
                l(4) =   1
                l(5) =   2

     Mode symmetry, C_2v (mm2)  point group:


     Electric field:
     Dielectric constant
     Born effective charges in two ways 


     Atomic displacements:
     There are  18 irreducible representations

     Representation     1      1 modes -A_1  D_1  S_1  To be done

     Representation     2      1 modes -A_1  D_1  S_1  To be done

     Representation     3      1 modes -A_1  D_1  S_1  To be done

     Representation     4      1 modes -A_1  D_1  S_1  To be done

     Representation     5      1 modes -A_1  D_1  S_1  To be done

     Representation     6      1 modes -A_1  D_1  S_1  To be done

     Representation     7      1 modes -A_2  D_2  S_2  To be done

     Representation     8      1 modes -B_1  D_3  S_3  To be done

     Representation     9      1 modes -B_1  D_3  S_3  To be done

     Representation    10      1 modes -B_1  D_3  S_3  To be done

     Representation    11      1 modes -B_1  D_3  S_3  To be done

     Representation    12      1 modes -B_1  D_3  S_3  To be done

     Representation    13      1 modes -B_1  D_3  S_3  To be done

     Representation    14      1 modes -B_2  D_4  S_4  To be done

     Representation    15      1 modes -B_2  D_4  S_4  To be done

     Representation    16      1 modes -B_2  D_4  S_4  To be done

     Representation    17      1 modes -B_2  D_4  S_4  To be done

     Representation    18      1 modes -B_2  D_4  S_4  To be done



     Alpha used in Ewald sum =   2.7000
     PHONON       :     2.61s CPU         5.62s WALL


     Electric Fields Calculation

      iter #   1 total cpu time :   222.3 secs   av.it.:   7.2
      thresh= 1.000E-02 alpha_mix =  0.700 |ddv_scf|^2 =  5.361E-08

      iter #   2 total cpu time :   320.4 secs   av.it.:  13.5
      thresh= 2.315E-05 alpha_mix =  0.700 |ddv_scf|^2 =  8.602E-08

      iter #   3 total cpu time :   404.3 secs   av.it.:  11.8
      thresh= 2.933E-05 alpha_mix =  0.700 |ddv_scf|^2 =  4.090E-09

      iter #   4 total cpu time :   493.7 secs   av.it.:  13.0
      thresh= 6.395E-06 alpha_mix =  0.700 |ddv_scf|^2 =  1.923E-10

      iter #   5 total cpu time :   584.2 secs   av.it.:  13.2
      thresh= 1.387E-06 alpha_mix =  0.700 |ddv_scf|^2 =  1.931E-11

      iter #   6 total cpu time :   671.6 secs   av.it.:  12.6
      thresh= 4.395E-07 alpha_mix =  0.700 |ddv_scf|^2 =  1.389E-13

      iter #   7 total cpu time :   768.5 secs   av.it.:  14.3
      thresh= 3.726E-08 alpha_mix =  0.700 |ddv_scf|^2 =  6.174E-14

      iter #   8 total cpu time :   858.2 secs   av.it.:  13.3
      thresh= 2.485E-08 alpha_mix =  0.700 |ddv_scf|^2 =  5.216E-16

     End of electric fields calculation

          Dielectric constant in cartesian axis 

          (       5.792031173       0.000000013       0.000000000 )
          (       0.000000013       5.792031173       0.000000000 )
          (       0.000000000       0.000000000       5.429848679 )

          Effective charges (d Force / dE) in cartesian axis

           atom      1   Sn 
      Ex  (        4.16234        0.57555        0.00000 )
      Ey  (        0.57555        4.16234        0.00000 )
      Ez  (        0.00000        0.00000        4.58746 )
           atom      2   Sn 
      Ex  (        4.16234       -0.57555        0.00000 )
      Ey  (       -0.57555        4.16234        0.00000 )
      Ez  (        0.00000        0.00000        4.58746 )
           atom      3   O  
      Ex  (       -2.10094        0.85825        0.00000 )
      Ey  (        0.85824       -2.10090        0.00000 )
      Ez  (        0.00000        0.00000       -2.35608 )
           atom      4   O  
      Ex  (       -2.10090        0.85824        0.00000 )
      Ey  (        0.85825       -2.10094        0.00000 )
      Ez  (        0.00000        0.00000       -2.35608 )
           atom      5   O  
      Ex  (       -2.10091       -0.85823        0.00000 )
      Ey  (       -0.85823       -2.10091        0.00000 )
      Ez  (        0.00000        0.00000       -2.35608 )
           atom      6   O  
      Ex  (       -2.10093       -0.85825        0.00000 )
      Ey  (       -0.85825       -2.10093        0.00000 )
      Ez  (        0.00000        0.00000       -2.35608 )


     Representation #  1 mode #   1

     Self-consistent Calculation

      iter #   1 total cpu time :   927.1 secs   av.it.:   6.6
      thresh= 1.000E-02 alpha_mix =  0.700 |ddv_scf|^2 =  2.772E-06

      iter #   2 total cpu time :   957.2 secs   av.it.:  12.4
      thresh= 1.665E-04 alpha_mix =  0.700 |ddv_scf|^2 =  7.220E-07

      iter #   3 total cpu time :   985.4 secs   av.it.:  12.2
      thresh= 8.497E-05 alpha_mix =  0.700 |ddv_scf|^2 =  2.403E-07

      iter #   4 total cpu time :  1012.1 secs   av.it.:  11.4
      thresh= 4.902E-05 alpha_mix =  0.700 |ddv_scf|^2 =  9.948E-09

      iter #   5 total cpu time :  1040.0 secs   av.it.:  12.1
      thresh= 9.974E-06 alpha_mix =  0.700 |ddv_scf|^2 =  7.435E-11

      iter #   6 total cpu time :  1069.7 secs   av.it.:  12.9
      thresh= 8.623E-07 alpha_mix =  0.700 |ddv_scf|^2 =  3.457E-11

      iter #   7 total cpu time :  1097.7 secs   av.it.:  12.2
      thresh= 5.880E-07 alpha_mix =  0.700 |ddv_scf|^2 =  1.596E-11

      iter #   8 total cpu time :  1124.8 secs   av.it.:  11.6
      thresh= 3.994E-07 alpha_mix =  0.700 |ddv_scf|^2 =  6.943E-13

      iter #   9 total cpu time :  1153.4 secs   av.it.:  12.2
      thresh= 8.333E-08 alpha_mix =  0.700 |ddv_scf|^2 =  2.444E-14

      iter #  10 total cpu time :  1183.0 secs   av.it.:  12.8
      thresh= 1.563E-08 alpha_mix =  0.700 |ddv_scf|^2 =  1.199E-14

      iter #  11 total cpu time :  1210.2 secs   av.it.:  11.7
      thresh= 1.095E-08 alpha_mix =  0.700 |ddv_scf|^2 =  8.595E-15

     End of self-consistent calculation

     Convergence has been achieved 


     Representation #  2 mode #   2

     Self-consistent Calculation

      iter #   1 total cpu time :  1229.1 secs   av.it.:   7.0
      thresh= 1.000E-02 alpha_mix =  0.700 |ddv_scf|^2 =  9.426E-06

      iter #   2 total cpu time :  1257.7 secs   av.it.:  11.8
      thresh= 3.070E-04 alpha_mix =  0.700 |ddv_scf|^2 =  5.674E-06

      iter #   3 total cpu time :  1283.5 secs   av.it.:  11.1
      thresh= 2.382E-04 alpha_mix =  0.700 |ddv_scf|^2 =  1.429E-07

      iter #   4 total cpu time :  1311.1 secs   av.it.:  11.6
      thresh= 3.780E-05 alpha_mix =  0.700 |ddv_scf|^2 =  5.417E-08

      iter #   5 total cpu time :  1337.9 secs   av.it.:  11.1
      thresh= 2.327E-05 alpha_mix =  0.700 |ddv_scf|^2 =  8.318E-11

      iter #   6 total cpu time :  1366.7 secs   av.it.:  12.5
      thresh= 9.120E-07 alpha_mix =  0.700 |ddv_scf|^2 =  1.256E-11

      iter #   7 total cpu time :  1395.5 secs   av.it.:  12.5
      thresh= 3.544E-07 alpha_mix =  0.700 |ddv_scf|^2 =  1.515E-11

      iter #   8 total cpu time :  1422.6 secs   av.it.:  11.6
      thresh= 3.892E-07 alpha_mix =  0.700 |ddv_scf|^2 =  1.904E-13

      iter #   9 total cpu time :  1451.5 secs   av.it.:  12.8
      thresh= 4.363E-08 alpha_mix =  0.700 |ddv_scf|^2 =  3.406E-14

      iter #  10 total cpu time :  1479.6 secs   av.it.:  12.3
      thresh= 1.846E-08 alpha_mix =  0.700 |ddv_scf|^2 =  1.966E-15

     End of self-consistent calculation

     Convergence has been achieved 


     Representation #  3 mode #   3

     Self-consistent Calculation

      iter #   1 total cpu time :  1500.4 secs   av.it.:   8.0
      thresh= 1.000E-02 alpha_mix =  0.700 |ddv_scf|^2 =  2.411E-05

      iter #   2 total cpu time :  1528.8 secs   av.it.:  12.3
      thresh= 4.910E-04 alpha_mix =  0.700 |ddv_scf|^2 =  2.335E-05

      iter #   3 total cpu time :  1555.4 secs   av.it.:  11.5
      thresh= 4.833E-04 alpha_mix =  0.700 |ddv_scf|^2 =  1.713E-06

      iter #   4 total cpu time :  1581.7 secs   av.it.:  11.4
      thresh= 1.309E-04 alpha_mix =  0.700 |ddv_scf|^2 =  2.373E-09

      iter #   5 total cpu time :  1609.4 secs   av.it.:  12.1
      thresh= 4.872E-06 alpha_mix =  0.700 |ddv_scf|^2 =  5.308E-11

      iter #   6 total cpu time :  1637.1 secs   av.it.:  12.2
      thresh= 7.286E-07 alpha_mix =  0.700 |ddv_scf|^2 =  1.713E-11

      iter #   7 total cpu time :  1664.5 secs   av.it.:  11.8
      thresh= 4.139E-07 alpha_mix =  0.700 |ddv_scf|^2 =  3.163E-13

      iter #   8 total cpu time :  1693.2 secs   av.it.:  12.5
      thresh= 5.624E-08 alpha_mix =  0.700 |ddv_scf|^2 =  9.977E-15

     End of self-consistent calculation

     Convergence has been achieved 


     Representation #  4 mode #   4

     Self-consistent Calculation

      iter #   1 total cpu time :  1712.4 secs   av.it.:   7.2
      thresh= 1.000E-02 alpha_mix =  0.700 |ddv_scf|^2 =  6.153E-06

      iter #   2 total cpu time :  1741.7 secs   av.it.:  12.6
      thresh= 2.480E-04 alpha_mix =  0.700 |ddv_scf|^2 =  3.417E-06

      iter #   3 total cpu time :  1770.8 secs   av.it.:  11.9
      thresh= 1.848E-04 alpha_mix =  0.700 |ddv_scf|^2 =  1.657E-07

      iter #   4 total cpu time :  1801.7 secs   av.it.:  12.0
      thresh= 4.071E-05 alpha_mix =  0.700 |ddv_scf|^2 =  3.853E-08

      iter #   5 total cpu time :  1831.8 secs   av.it.:  11.8
      thresh= 1.963E-05 alpha_mix =  0.700 |ddv_scf|^2 =  3.878E-10

      iter #   6 total cpu time :  1864.1 secs   av.it.:  12.8
      thresh= 1.969E-06 alpha_mix =  0.700 |ddv_scf|^2 =  2.785E-10

      iter #   7 total cpu time :  1894.1 secs   av.it.:  11.9
      thresh= 1.669E-06 alpha_mix =  0.700 |ddv_scf|^2 =  8.281E-12

      iter #   8 total cpu time :  1926.6 secs   av.it.:  12.8
      thresh= 2.878E-07 alpha_mix =  0.700 |ddv_scf|^2 =  1.065E-12

      iter #   9 total cpu time :  1959.6 secs   av.it.:  13.0
      thresh= 1.032E-07 alpha_mix =  0.700 |ddv_scf|^2 =  1.417E-13

      iter #  10 total cpu time :  1991.3 secs   av.it.:  12.3
      thresh= 3.765E-08 alpha_mix =  0.700 |ddv_scf|^2 =  7.012E-15

     End of self-consistent calculation

     Convergence has been achieved 


     Representation #  5 mode #   5

     Self-consistent Calculation

      iter #   1 total cpu time :  2013.5 secs   av.it.:   7.8
      thresh= 1.000E-02 alpha_mix =  0.700 |ddv_scf|^2 =  2.057E-05

      iter #   2 total cpu time :  2045.3 secs   av.it.:  12.2
      thresh= 4.535E-04 alpha_mix =  0.700 |ddv_scf|^2 =  1.756E-05

      iter #   3 total cpu time :  2075.5 secs   av.it.:  11.5
      thresh= 4.191E-04 alpha_mix =  0.700 |ddv_scf|^2 =  1.776E-06

      iter #   4 total cpu time :  2105.3 secs   av.it.:  11.4
      thresh= 1.333E-04 alpha_mix =  0.700 |ddv_scf|^2 =  2.400E-09

      iter #   5 total cpu time :  2136.5 secs   av.it.:  12.1
      thresh= 4.899E-06 alpha_mix =  0.700 |ddv_scf|^2 =  1.917E-10

      iter #   6 total cpu time :  2166.4 secs   av.it.:  11.7
      thresh= 1.384E-06 alpha_mix =  0.700 |ddv_scf|^2 =  7.381E-11

      iter #   7 total cpu time :  2195.7 secs   av.it.:  11.4
      thresh= 8.591E-07 alpha_mix =  0.700 |ddv_scf|^2 =  1.336E-12

      iter #   8 total cpu time :  2225.9 secs   av.it.:  11.6
      thresh= 1.156E-07 alpha_mix =  0.700 |ddv_scf|^2 =  1.886E-14

      iter #   9 total cpu time :  2257.2 secs   av.it.:  12.5
      thresh= 1.373E-08 alpha_mix =  0.700 |ddv_scf|^2 =  2.988E-15

     End of self-consistent calculation

     Convergence has been achieved 


     Representation #  6 mode #   6

     Self-consistent Calculation

      iter #   1 total cpu time :  2278.3 secs   av.it.:   7.2
      thresh= 1.000E-02 alpha_mix =  0.700 |ddv_scf|^2 =  6.153E-06

      iter #   2 total cpu time :  2311.0 secs   av.it.:  12.6
      thresh= 2.480E-04 alpha_mix =  0.700 |ddv_scf|^2 =  3.417E-06

      iter #   3 total cpu time :  2341.5 secs   av.it.:  11.9
      thresh= 1.848E-04 alpha_mix =  0.700 |ddv_scf|^2 =  1.657E-07

      iter #   4 total cpu time :  2372.6 secs   av.it.:  12.0
      thresh= 4.071E-05 alpha_mix =  0.700 |ddv_scf|^2 =  3.853E-08

      iter #   5 total cpu time :  2403.0 secs   av.it.:  11.8
      thresh= 1.963E-05 alpha_mix =  0.700 |ddv_scf|^2 =  3.879E-10

      iter #   6 total cpu time :  2435.1 secs   av.it.:  12.8
      thresh= 1.969E-06 alpha_mix =  0.700 |ddv_scf|^2 =  2.785E-10

      iter #   7 total cpu time :  2465.5 secs   av.it.:  11.9
      thresh= 1.669E-06 alpha_mix =  0.700 |ddv_scf|^2 =  8.280E-12

      iter #   8 total cpu time :  2497.9 secs   av.it.:  12.8
      thresh= 2.878E-07 alpha_mix =  0.700 |ddv_scf|^2 =  1.065E-12

      iter #   9 total cpu time :  2530.5 secs   av.it.:  13.0
      thresh= 1.032E-07 alpha_mix =  0.700 |ddv_scf|^2 =  1.417E-13

      iter #  10 total cpu time :  2563.8 secs   av.it.:  12.3
      thresh= 3.764E-08 alpha_mix =  0.700 |ddv_scf|^2 =  7.012E-15

     End of self-consistent calculation

     Convergence has been achieved 


     Representation #  7 mode #   7

     Self-consistent Calculation

      iter #   1 total cpu time :  2583.6 secs   av.it.:   6.3
      thresh= 1.000E-02 alpha_mix =  0.700 |ddv_scf|^2 =  1.411E-06

      iter #   2 total cpu time :  2614.5 secs   av.it.:  11.4
      thresh= 1.188E-04 alpha_mix =  0.700 |ddv_scf|^2 =  1.758E-08

      iter #   3 total cpu time :  2645.9 secs   av.it.:  11.6
      thresh= 1.326E-05 alpha_mix =  0.700 |ddv_scf|^2 =  2.008E-10

      iter #   4 total cpu time :  2676.9 secs   av.it.:  11.5
      thresh= 1.417E-06 alpha_mix =  0.700 |ddv_scf|^2 =  1.710E-12

      iter #   5 total cpu time :  2707.4 secs   av.it.:  11.7
      thresh= 1.307E-07 alpha_mix =  0.700 |ddv_scf|^2 =  9.763E-15

     End of self-consistent calculation

     Convergence has been achieved 


     Representation #  8 mode #   8

     Self-consistent Calculation

      iter #   1 total cpu time :  2728.7 secs   av.it.:   6.7
      thresh= 1.000E-02 alpha_mix =  0.700 |ddv_scf|^2 =  4.910E-06

      iter #   2 total cpu time :  2760.1 secs   av.it.:  12.1
      thresh= 2.216E-04 alpha_mix =  0.700 |ddv_scf|^2 =  6.219E-07

      iter #   3 total cpu time :  2791.5 secs   av.it.:  12.1
      thresh= 7.886E-05 alpha_mix =  0.700 |ddv_scf|^2 =  4.560E-08

      iter #   4 total cpu time :  2821.9 secs   av.it.:  11.5
      thresh= 2.135E-05 alpha_mix =  0.700 |ddv_scf|^2 =  5.636E-09

      iter #   5 total cpu time :  2852.7 secs   av.it.:  11.7
      thresh= 7.507E-06 alpha_mix =  0.700 |ddv_scf|^2 =  1.019E-10

      iter #   6 total cpu time :  2885.1 secs   av.it.:  12.6
      thresh= 1.010E-06 alpha_mix =  0.700 |ddv_scf|^2 =  8.845E-12

      iter #   7 total cpu time :  2918.1 secs   av.it.:  12.5
      thresh= 2.974E-07 alpha_mix =  0.700 |ddv_scf|^2 =  2.101E-13

      iter #   8 total cpu time :  2949.9 secs   av.it.:  12.2
      thresh= 4.584E-08 alpha_mix =  0.700 |ddv_scf|^2 =  7.734E-15

     End of self-consistent calculation

     Convergence has been achieved 


     Representation #  9 mode #   9

     Self-consistent Calculation

      iter #   1 total cpu time :  2974.4 secs   av.it.:   8.0
      thresh= 1.000E-02 alpha_mix =  0.700 |ddv_scf|^2 =  2.411E-05

      iter #   2 total cpu time :  3008.3 secs   av.it.:  12.3
      thresh= 4.910E-04 alpha_mix =  0.700 |ddv_scf|^2 =  2.335E-05

      iter #   3 total cpu time :  3038.2 secs   av.it.:  11.4
      thresh= 4.833E-04 alpha_mix =  0.700 |ddv_scf|^2 =  1.713E-06

      iter #   4 total cpu time :  3068.3 secs   av.it.:  11.4
      thresh= 1.309E-04 alpha_mix =  0.700 |ddv_scf|^2 =  2.373E-09

      iter #   5 total cpu time :  3099.7 secs   av.it.:  12.1
      thresh= 4.872E-06 alpha_mix =  0.700 |ddv_scf|^2 =  5.307E-11

      iter #   6 total cpu time :  3130.9 secs   av.it.:  12.2
      thresh= 7.285E-07 alpha_mix =  0.700 |ddv_scf|^2 =  1.713E-11

      iter #   7 total cpu time :  3161.5 secs   av.it.:  11.8
      thresh= 4.138E-07 alpha_mix =  0.700 |ddv_scf|^2 =  3.161E-13

      iter #   8 total cpu time :  3192.8 secs   av.it.:  12.4
      thresh= 5.622E-08 alpha_mix =  0.700 |ddv_scf|^2 =  8.948E-15

     End of self-consistent calculation

     Convergence has been achieved 


     Representation # 10 mode #  10

     Self-consistent Calculation

      iter #   1 total cpu time :  3213.3 secs   av.it.:   6.6
      thresh= 1.000E-02 alpha_mix =  0.700 |ddv_scf|^2 =  3.917E-06

      iter #   2 total cpu time :  3245.5 secs   av.it.:  12.1
      thresh= 1.979E-04 alpha_mix =  0.700 |ddv_scf|^2 =  6.434E-07

      iter #   3 total cpu time :  3277.4 secs   av.it.:  12.2
      thresh= 8.021E-05 alpha_mix =  0.700 |ddv_scf|^2 =  1.589E-07

      iter #   4 total cpu time :  3307.4 secs   av.it.:  11.4
      thresh= 3.987E-05 alpha_mix =  0.700 |ddv_scf|^2 =  5.825E-09

      iter #   5 total cpu time :  3338.9 secs   av.it.:  12.1
      thresh= 7.632E-06 alpha_mix =  0.700 |ddv_scf|^2 =  1.486E-10

      iter #   6 total cpu time :  3370.8 secs   av.it.:  12.6
      thresh= 1.219E-06 alpha_mix =  0.700 |ddv_scf|^2 =  1.008E-11

      iter #   7 total cpu time :  3402.0 secs   av.it.:  12.1
      thresh= 3.175E-07 alpha_mix =  0.700 |ddv_scf|^2 =  4.069E-13

      iter #   8 total cpu time :  3433.3 secs   av.it.:  12.1
      thresh= 6.379E-08 alpha_mix =  0.700 |ddv_scf|^2 =  6.483E-15

     End of self-consistent calculation

     Convergence has been achieved 


     Representation # 11 mode #  11

     Self-consistent Calculation

      iter #   1 total cpu time :  3455.6 secs   av.it.:   7.1
      thresh= 1.000E-02 alpha_mix =  0.700 |ddv_scf|^2 =  3.036E-06

      iter #   2 total cpu time :  3488.0 secs   av.it.:  12.6
      thresh= 1.742E-04 alpha_mix =  0.700 |ddv_scf|^2 =  1.113E-06

      iter #   3 total cpu time :  3519.1 secs   av.it.:  12.0
      thresh= 1.055E-04 alpha_mix =  0.700 |ddv_scf|^2 =  2.657E-07

      iter #   4 total cpu time :  3548.8 secs   av.it.:  11.3
      thresh= 5.154E-05 alpha_mix =  0.700 |ddv_scf|^2 =  6.864E-09

      iter #   5 total cpu time :  3580.6 secs   av.it.:  12.2
      thresh= 8.285E-06 alpha_mix =  0.700 |ddv_scf|^2 =  6.272E-11

      iter #   6 total cpu time :  3612.9 secs   av.it.:  12.9
      thresh= 7.920E-07 alpha_mix =  0.700 |ddv_scf|^2 =  9.153E-12

      iter #   7 total cpu time :  3645.8 secs   av.it.:  12.5
      thresh= 3.025E-07 alpha_mix =  0.700 |ddv_scf|^2 =  6.108E-13

      iter #   8 total cpu time :  3677.6 secs   av.it.:  12.3
      thresh= 7.815E-08 alpha_mix =  0.700 |ddv_scf|^2 =  1.362E-14

      iter #   9 total cpu time :  3710.2 secs   av.it.:  13.0
      thresh= 1.167E-08 alpha_mix =  0.700 |ddv_scf|^2 =  2.114E-15

     End of self-consistent calculation

     Convergence has been achieved 


     Representation # 12 mode #  12

     Self-consistent Calculation

      iter #   1 total cpu time :  3730.6 secs   av.it.:   6.6
      thresh= 1.000E-02 alpha_mix =  0.700 |ddv_scf|^2 =  3.918E-06

      iter #   2 total cpu time :  3763.9 secs   av.it.:  12.1
      thresh= 1.979E-04 alpha_mix =  0.700 |ddv_scf|^2 =  6.434E-07

      iter #   3 total cpu time :  3795.4 secs   av.it.:  12.2
      thresh= 8.021E-05 alpha_mix =  0.700 |ddv_scf|^2 =  1.589E-07

      iter #   4 total cpu time :  3825.2 secs   av.it.:  11.4
      thresh= 3.987E-05 alpha_mix =  0.700 |ddv_scf|^2 =  5.826E-09

      iter #   5 total cpu time :  3856.1 secs   av.it.:  12.1
      thresh= 7.633E-06 alpha_mix =  0.700 |ddv_scf|^2 =  1.486E-10

      iter #   6 total cpu time :  3888.1 secs   av.it.:  12.6
      thresh= 1.219E-06 alpha_mix =  0.700 |ddv_scf|^2 =  1.008E-11

      iter #   7 total cpu time :  3918.8 secs   av.it.:  12.1
      thresh= 3.175E-07 alpha_mix =  0.700 |ddv_scf|^2 =  4.069E-13

      iter #   8 total cpu time :  3949.9 secs   av.it.:  12.1
      thresh= 6.379E-08 alpha_mix =  0.700 |ddv_scf|^2 =  6.483E-15

     End of self-consistent calculation

     Convergence has been achieved 


     Representation # 13 mode #  13

     Self-consistent Calculation

      iter #   1 total cpu time :  3972.5 secs   av.it.:   7.8
      thresh= 1.000E-02 alpha_mix =  0.700 |ddv_scf|^2 =  2.057E-05

      iter #   2 total cpu time :  4004.4 secs   av.it.:  12.1
      thresh= 4.535E-04 alpha_mix =  0.700 |ddv_scf|^2 =  1.756E-05

      iter #   3 total cpu time :  4034.2 secs   av.it.:  11.5
      thresh= 4.191E-04 alpha_mix =  0.700 |ddv_scf|^2 =  1.776E-06

      iter #   4 total cpu time :  4063.7 secs   av.it.:  11.3
      thresh= 1.333E-04 alpha_mix =  0.700 |ddv_scf|^2 =  2.400E-09

      iter #   5 total cpu time :  4094.7 secs   av.it.:  12.0
      thresh= 4.899E-06 alpha_mix =  0.700 |ddv_scf|^2 =  1.917E-10

      iter #   6 total cpu time :  4125.8 secs   av.it.:  11.6
      thresh= 1.384E-06 alpha_mix =  0.700 |ddv_scf|^2 =  7.381E-11

      iter #   7 total cpu time :  4154.8 secs   av.it.:  11.4
      thresh= 8.591E-07 alpha_mix =  0.700 |ddv_scf|^2 =  1.336E-12

      iter #   8 total cpu time :  4184.5 secs   av.it.:  11.5
      thresh= 1.156E-07 alpha_mix =  0.700 |ddv_scf|^2 =  1.859E-14

      iter #   9 total cpu time :  4215.0 secs   av.it.:  12.0
      thresh= 1.364E-08 alpha_mix =  0.700 |ddv_scf|^2 =  3.073E-16

     End of self-consistent calculation

     Convergence has been achieved 


     Representation # 14 mode #  14

     Self-consistent Calculation

      iter #   1 total cpu time :  4236.6 secs   av.it.:   7.3
      thresh= 1.000E-02 alpha_mix =  0.700 |ddv_scf|^2 =  7.083E-06

      iter #   2 total cpu time :  4269.0 secs   av.it.:  12.2
      thresh= 2.661E-04 alpha_mix =  0.700 |ddv_scf|^2 =  1.331E-06

      iter #   3 total cpu time :  4299.9 secs   av.it.:  11.8
      thresh= 1.154E-04 alpha_mix =  0.700 |ddv_scf|^2 =  4.063E-09

      iter #   4 total cpu time :  4331.0 secs   av.it.:  12.0
      thresh= 6.374E-06 alpha_mix =  0.700 |ddv_scf|^2 =  3.076E-10

      iter #   5 total cpu time :  4361.9 secs   av.it.:  12.0
      thresh= 1.754E-06 alpha_mix =  0.700 |ddv_scf|^2 =  6.356E-12

      iter #   6 total cpu time :  4393.6 secs   av.it.:  11.8
      thresh= 2.521E-07 alpha_mix =  0.700 |ddv_scf|^2 =  1.204E-13

      iter #   7 total cpu time :  4424.5 secs   av.it.:  12.1
      thresh= 3.470E-08 alpha_mix =  0.700 |ddv_scf|^2 =  4.645E-15

     End of self-consistent calculation

     Convergence has been achieved 


     Representation # 15 mode #  15

     Self-consistent Calculation

      iter #   1 total cpu time :  4445.0 secs   av.it.:   6.7
      thresh= 1.000E-02 alpha_mix =  0.700 |ddv_scf|^2 =  2.044E-06

      iter #   2 total cpu time :  4477.3 secs   av.it.:  12.1
      thresh= 1.430E-04 alpha_mix =  0.700 |ddv_scf|^2 =  1.775E-07

      iter #   3 total cpu time :  4508.9 secs   av.it.:  12.0
      thresh= 4.213E-05 alpha_mix =  0.700 |ddv_scf|^2 =  4.434E-09

      iter #   4 total cpu time :  4539.3 secs   av.it.:  12.0
      thresh= 6.659E-06 alpha_mix =  0.700 |ddv_scf|^2 =  5.019E-11

      iter #   5 total cpu time :  4570.7 secs   av.it.:  12.1
      thresh= 7.085E-07 alpha_mix =  0.700 |ddv_scf|^2 =  2.805E-12

      iter #   6 total cpu time :  4600.9 secs   av.it.:  11.8
      thresh= 1.675E-07 alpha_mix =  0.700 |ddv_scf|^2 =  8.902E-14

      iter #   7 total cpu time :  4631.0 secs   av.it.:  11.4
      thresh= 2.984E-08 alpha_mix =  0.700 |ddv_scf|^2 =  7.200E-15

     End of self-consistent calculation

     Convergence has been achieved 


     Representation # 16 mode #  16

     Self-consistent Calculation

      iter #   1 total cpu time :  4652.0 secs   av.it.:   6.8
      thresh= 1.000E-02 alpha_mix =  0.700 |ddv_scf|^2 =  1.727E-06

      iter #   2 total cpu time :  4685.1 secs   av.it.:  12.5
      thresh= 1.314E-04 alpha_mix =  0.700 |ddv_scf|^2 =  9.755E-08

      iter #   3 total cpu time :  4718.9 secs   av.it.:  12.7
      thresh= 3.123E-05 alpha_mix =  0.700 |ddv_scf|^2 =  4.197E-09

      iter #   4 total cpu time :  4750.0 secs   av.it.:  12.2
      thresh= 6.478E-06 alpha_mix =  0.700 |ddv_scf|^2 =  4.990E-11

      iter #   5 total cpu time :  4782.1 secs   av.it.:  12.5
      thresh= 7.064E-07 alpha_mix =  0.700 |ddv_scf|^2 =  1.647E-12

      iter #   6 total cpu time :  4813.7 secs   av.it.:  12.3
      thresh= 1.284E-07 alpha_mix =  0.700 |ddv_scf|^2 =  9.033E-14

      iter #   7 total cpu time :  4846.1 secs   av.it.:  12.3
      thresh= 3.006E-08 alpha_mix =  0.700 |ddv_scf|^2 =  6.743E-15

     End of self-consistent calculation

     Convergence has been achieved 


     Representation # 17 mode #  17

     Self-consistent Calculation

      iter #   1 total cpu time :  4868.8 secs   av.it.:   7.3
      thresh= 1.000E-02 alpha_mix =  0.700 |ddv_scf|^2 =  7.083E-06

      iter #   2 total cpu time :  4900.9 secs   av.it.:  12.2
      thresh= 2.661E-04 alpha_mix =  0.700 |ddv_scf|^2 =  1.331E-06

      iter #   3 total cpu time :  4932.4 secs   av.it.:  11.7
      thresh= 1.154E-04 alpha_mix =  0.700 |ddv_scf|^2 =  4.063E-09

      iter #   4 total cpu time :  4963.4 secs   av.it.:  12.0
      thresh= 6.374E-06 alpha_mix =  0.700 |ddv_scf|^2 =  3.076E-10

      iter #   5 total cpu time :  4994.5 secs   av.it.:  12.0
      thresh= 1.754E-06 alpha_mix =  0.700 |ddv_scf|^2 =  6.356E-12

      iter #   6 total cpu time :  5025.4 secs   av.it.:  11.9
      thresh= 2.521E-07 alpha_mix =  0.700 |ddv_scf|^2 =  1.204E-13

      iter #   7 total cpu time :  5056.5 secs   av.it.:  12.1
      thresh= 3.470E-08 alpha_mix =  0.700 |ddv_scf|^2 =  4.645E-15

     End of self-consistent calculation

     Convergence has been achieved 


     Representation # 18 mode #  18

     Self-consistent Calculation

      iter #   1 total cpu time :  5077.6 secs   av.it.:   6.8
      thresh= 1.000E-02 alpha_mix =  0.700 |ddv_scf|^2 =  1.727E-06

      iter #   2 total cpu time :  5111.6 secs   av.it.:  12.5
      thresh= 1.314E-04 alpha_mix =  0.700 |ddv_scf|^2 =  9.755E-08

      iter #   3 total cpu time :  5143.9 secs   av.it.:  12.7
      thresh= 3.123E-05 alpha_mix =  0.700 |ddv_scf|^2 =  4.197E-09

      iter #   4 total cpu time :  5176.0 secs   av.it.:  12.2
      thresh= 6.478E-06 alpha_mix =  0.700 |ddv_scf|^2 =  4.990E-11

      iter #   5 total cpu time :  5207.7 secs   av.it.:  12.5
      thresh= 7.064E-07 alpha_mix =  0.700 |ddv_scf|^2 =  1.647E-12

      iter #   6 total cpu time :  5239.4 secs   av.it.:  12.3
      thresh= 1.283E-07 alpha_mix =  0.700 |ddv_scf|^2 =  9.033E-14

      iter #   7 total cpu time :  5271.1 secs   av.it.:  12.3
      thresh= 3.006E-08 alpha_mix =  0.700 |ddv_scf|^2 =  6.743E-15

     End of self-consistent calculation

     Convergence has been achieved 
 
     Number of q in the star =    1
     List of q in the star:
          1   0.000000000   0.000000000   0.000000000

          Dielectric constant in cartesian axis 

          (       5.792031173       0.000000013       0.000000000 )
          (       0.000000013       5.792031173       0.000000000 )
          (       0.000000000       0.000000000       5.429848679 )

          Effective charges (d Force / dE) in cartesian axis

           atom      1   Sn 
      Ex  (        4.16234        0.57555        0.00000 )
      Ey  (        0.57555        4.16234        0.00000 )
      Ez  (        0.00000        0.00000        4.58746 )
           atom      2   Sn 
      Ex  (        4.16234       -0.57555        0.00000 )
      Ey  (       -0.57555        4.16234        0.00000 )
      Ez  (        0.00000        0.00000        4.58746 )
           atom      3   O  
      Ex  (       -2.10094        0.85825        0.00000 )
      Ey  (        0.85824       -2.10090        0.00000 )
      Ez  (        0.00000        0.00000       -2.35608 )
           atom      4   O  
      Ex  (       -2.10090        0.85824        0.00000 )
      Ey  (        0.85825       -2.10094        0.00000 )
      Ez  (        0.00000        0.00000       -2.35608 )
           atom      5   O  
      Ex  (       -2.10091       -0.85823        0.00000 )
      Ey  (       -0.85823       -2.10091        0.00000 )
      Ez  (        0.00000        0.00000       -2.35608 )
           atom      6   O  
      Ex  (       -2.10093       -0.85825        0.00000 )
      Ey  (       -0.85825       -2.10093        0.00000 )
      Ez  (        0.00000        0.00000       -2.35608 )

          Effective charges (d P / du) in cartesian axis 

           atom      1   Sn 
      Px  (        4.16221        0.57610        0.00000 )
      Py  (        0.57610        4.16221        0.00000 )
      Pz  (        0.00000        0.00000        4.58761 )
           atom      2   Sn 
      Px  (        4.16221       -0.57610        0.00000 )
      Py  (       -0.57610        4.16221        0.00000 )
      Pz  (        0.00000        0.00000        4.58761 )
           atom      3   O  
      Px  (       -2.10092        0.85825        0.00000 )
      Py  (        0.85822       -2.10102        0.00000 )
      Pz  (        0.00000        0.00000       -2.35576 )
           atom      4   O  
      Px  (       -2.10102        0.85822        0.00000 )
      Py  (        0.85825       -2.10092        0.00000 )
      Pz  (        0.00000        0.00000       -2.35576 )
           atom      5   O  
      Px  (       -2.10086       -0.85838        0.00000 )
      Py  (       -0.85838       -2.10086        0.00000 )
      Pz  (        0.00000        0.00000       -2.35577 )
           atom      6   O  
      Px  (       -2.10084       -0.85837        0.00000 )
      Py  (       -0.85837       -2.10084        0.00000 )
      Pz  (        0.00000        0.00000       -2.35577 )

     Diagonalizing the dynamical matrix

     q = (    0.000000000   0.000000000   0.000000000 ) 

 **************************************************************************
     freq (    1) =      -0.643146 [THz] =     -21.453042 [cm-1]
     freq (    2) =      -0.567978 [THz] =     -18.945692 [cm-1]
     freq (    3) =       0.726177 [THz] =      24.222644 [cm-1]
     freq (    4) =       2.855127 [THz] =      95.236796 [cm-1]
     freq (    5) =       4.239839 [THz] =     141.425791 [cm-1]
     freq (    6) =       6.397463 [THz] =     213.396381 [cm-1]
     freq (    7) =       6.398899 [THz] =     213.444283 [cm-1]
     freq (    8) =       7.795497 [THz] =     260.029784 [cm-1]
     freq (    9) =       7.796427 [THz] =     260.060815 [cm-1]
     freq (   10) =      10.049142 [THz] =     335.203312 [cm-1]
     freq (   11) =      13.088570 [THz] =     436.587691 [cm-1]
     freq (   12) =      13.286828 [THz] =     443.200878 [cm-1]
     freq (   13) =      13.298546 [THz] =     443.591748 [cm-1]
     freq (   14) =      15.964236 [THz] =     532.509580 [cm-1]
     freq (   15) =      16.433189 [THz] =     548.152190 [cm-1]
     freq (   16) =      16.433677 [THz] =     548.168458 [cm-1]
     freq (   17) =      17.506505 [THz] =     583.954134 [cm-1]
     freq (   18) =      21.136607 [THz] =     705.041319 [cm-1]
 **************************************************************************

     Mode symmetry, C_2v (mm2)  point group:

     freq (  1 -  1) =        -21.5  [cm-1]   --> A_1  D_1  S_1   I+R
     freq (  2 -  2) =        -18.9  [cm-1]   --> B_1  D_3  S_3   I+R
     freq (  3 -  3) =         24.2  [cm-1]   --> B_2  D_4  S_4   I+R
     freq (  4 -  4) =         95.2  [cm-1]   --> B_1  D_3  S_3   I+R
     freq (  5 -  5) =        141.4  [cm-1]   --> B_2  D_4  S_4   I+R
     freq (  6 -  6) =        213.4  [cm-1]   --> A_1  D_1  S_1   I+R
     freq (  7 -  7) =        213.4  [cm-1]   --> B_1  D_3  S_3   I+R
     freq (  8 -  8) =        260.0  [cm-1]   --> A_1  D_1  S_1   I+R
     freq (  9 -  9) =        260.1  [cm-1]   --> B_1  D_3  S_3   I+R
     freq ( 10 - 10) =        335.2  [cm-1]   --> B_1  D_3  S_3   I+R
     freq ( 11 - 11) =        436.6  [cm-1]   --> B_2  D_4  S_4   I+R
     freq ( 12 - 12) =        443.2  [cm-1]   --> A_2  D_2  S_2   R  
     freq ( 13 - 13) =        443.6  [cm-1]   --> B_2  D_4  S_4   I+R
     freq ( 14 - 14) =        532.5  [cm-1]   --> B_2  D_4  S_4   I+R
     freq ( 15 - 15) =        548.2  [cm-1]   --> A_1  D_1  S_1   I+R
     freq ( 16 - 16) =        548.2  [cm-1]   --> B_1  D_3  S_3   I+R
     freq ( 17 - 17) =        584.0  [cm-1]   --> A_1  D_1  S_1   I+R
     freq ( 18 - 18) =        705.0  [cm-1]   --> A_1  D_1  S_1   I+R

     Calculation of q =    0.0000000   0.0000000   0.4963289
 
     Parallelization info
     --------------------
     sticks:   dense  smooth     PW     G-vecs:    dense   smooth      PW
     Min         500     500    148                11236    11236    1810
     Max         501     501    149                11237    11237    1813
     Sum        2001    2001    593                44945    44945    7243
 

     Title: 
     Phonon dispersions for SnO2                                                


     bravais-lattice index     =            6
     lattice parameter (alat)  =       9.1370  a.u.
     unit-cell volume          =     512.3005 (a.u.)^3
     number of atoms/cell      =            6
     number of atomic types    =            2
     number of electrons       =        52.00
     number of Kohn-Sham states=           26
     kinetic-energy cutoff     =      75.0000  Ry
     charge density cutoff     =     300.0000  Ry
     Exchange-correlation      = PBE ( 1  4  3  4 0 0)

     celldm(1)=   9.137033  celldm(2)=   1.000000  celldm(3)=   0.671598
     celldm(4)=   0.000000  celldm(5)=   0.000000  celldm(6)=   0.000000

     crystal axes: (cart. coord. in units of alat)
               a(1) = (   1.000000   0.000000   0.000000 )  
               a(2) = (   0.000000   1.000000   0.000000 )  
               a(3) = (   0.000000   0.000000   0.671598 )  

     reciprocal axes: (cart. coord. in units 2 pi/alat)
               b(1) = (  1.000000  0.000000  0.000000 )  
               b(2) = (  0.000000  1.000000  0.000000 )  
               b(3) = (  0.000000  0.000000  1.488987 )  


     PseudoPot. # 1 for Sn read from file:
     ../../../Pseudo_potentials/Sn_PBE.upf
     MD5 check sum: 78e6386ae56e929f0568ae8bf606a80c
     Pseudo is Norm-conserving + core correction, Zval = 14.0
     Generated using ONCVPSP code by D. R. Hamann
     Using radial grid of 1628 points,  6 beta functions with: 
                l(1) =   0
                l(2) =   0
                l(3) =   1
                l(4) =   1
                l(5) =   2
                l(6) =   2

     PseudoPot. # 2 for O  read from file:
     ../../../Pseudo_potentials/O_PBE.upf
     MD5 check sum: 3e3f909f7470e8921608ab6b1f57bbae
     Pseudo is Norm-conserving + core correction, Zval =  6.0
     Generated using ONCVPSP code by D. R. Hamann
     Using radial grid of  936 points,  5 beta functions with: 
                l(1) =   0
                l(2) =   0
                l(3) =   1
                l(4) =   1
                l(5) =   2

     atomic species   valence    mass     pseudopotential
        Sn            14.00   118.71000     Sn( 1.00)
        O              6.00    15.99900     O ( 1.00)

      4 Sym. Ops. (no inversion) found



   Cartesian axes

     site n.     atom                  positions (alat units)
         1           Sn  tau(   1) = (  -0.0003320  -0.0003320   0.0000000  )
         2           Sn  tau(   2) = (   0.4996675   0.4996675   0.3357989  )
         3           O   tau(   3) = (   0.8063692   0.1929618   0.3357989  )
         4           O   tau(   4) = (   0.1929618   0.8063692   0.3357989  )
         5           O   tau(   5) = (   0.3063705   0.3063705   0.0000000  )
         6           O   tau(   6) = (   0.6929630   0.6929630   0.0000000  )

     number of k points=    80
                       cart. coord. in units 2pi/alat
        k(    1) = (   0.0000000   0.0000000   0.0000000), wk =   0.0312500
        k(    2) = (   0.0000000   0.0000000   0.4963289), wk =   0.0000000
        k(    3) = (   0.0000000   0.0000000   0.3722466), wk =   0.0312500
        k(    4) = (   0.0000000   0.0000000   0.8685755), wk =   0.0000000
        k(    5) = (   0.0000000   0.0000000  -0.7444933), wk =   0.0312500
        k(    6) = (   0.0000000   0.0000000  -0.2481644), wk =   0.0000000
        k(    7) = (   0.0000000   0.2500000   0.0000000), wk =   0.0625000
        k(    8) = (   0.0000000   0.2500000   0.4963289), wk =   0.0000000
        k(    9) = (   0.0000000   0.2500000   0.3722466), wk =   0.0625000
        k(   10) = (   0.0000000   0.2500000   0.8685755), wk =   0.0000000
        k(   11) = (   0.0000000   0.2500000  -0.7444933), wk =   0.0625000
        k(   12) = (   0.0000000   0.2500000  -0.2481644), wk =   0.0000000
        k(   13) = (   0.0000000  -0.5000000   0.0000000), wk =   0.0625000
        k(   14) = (   0.0000000  -0.5000000   0.4963289), wk =   0.0000000
        k(   15) = (   0.0000000  -0.5000000   0.3722466), wk =   0.0625000
        k(   16) = (   0.0000000  -0.5000000   0.8685755), wk =   0.0000000
        k(   17) = (   0.0000000  -0.5000000  -0.7444933), wk =   0.0625000
        k(   18) = (   0.0000000  -0.5000000  -0.2481644), wk =   0.0000000
        k(   19) = (   0.2500000   0.2500000   0.0000000), wk =   0.0312500
        k(   20) = (   0.2500000   0.2500000   0.4963289), wk =   0.0000000
        k(   21) = (   0.2500000   0.2500000   0.3722466), wk =   0.0312500
        k(   22) = (   0.2500000   0.2500000   0.8685755), wk =   0.0000000
        k(   23) = (   0.2500000   0.2500000  -0.7444933), wk =   0.0312500
        k(   24) = (   0.2500000   0.2500000  -0.2481644), wk =   0.0000000
        k(   25) = (   0.2500000  -0.5000000   0.0000000), wk =   0.0625000
        k(   26) = (   0.2500000  -0.5000000   0.4963289), wk =   0.0000000
        k(   27) = (   0.2500000  -0.5000000   0.3722466), wk =   0.0625000
        k(   28) = (   0.2500000  -0.5000000   0.8685755), wk =   0.0000000
        k(   29) = (   0.2500000  -0.5000000  -0.7444933), wk =   0.0625000
        k(   30) = (   0.2500000  -0.5000000  -0.2481644), wk =   0.0000000
        k(   31) = (  -0.5000000  -0.5000000   0.0000000), wk =   0.0312500
        k(   32) = (  -0.5000000  -0.5000000   0.4963289), wk =   0.0000000
        k(   33) = (  -0.5000000  -0.5000000   0.3722466), wk =   0.0312500
        k(   34) = (  -0.5000000  -0.5000000   0.8685755), wk =   0.0000000
        k(   35) = (  -0.5000000  -0.5000000  -0.7444933), wk =   0.0312500
        k(   36) = (  -0.5000000  -0.5000000  -0.2481644), wk =   0.0000000
        k(   37) = (   0.0000000   0.0000000  -0.3722466), wk =   0.0312500
        k(   38) = (   0.0000000   0.0000000   0.1240822), wk =   0.0000000
        k(   39) = (   0.0000000  -0.2500000   0.0000000), wk =   0.0625000
        k(   40) = (   0.0000000  -0.2500000   0.4963289), wk =   0.0000000
        k(   41) = (   0.0000000   0.2500000  -0.3722466), wk =   0.0625000
        k(   42) = (   0.0000000   0.2500000   0.1240822), wk =   0.0000000
        k(   43) = (   0.0000000  -0.2500000   0.3722466), wk =   0.0625000
        k(   44) = (   0.0000000  -0.2500000   0.8685755), wk =   0.0000000
        k(   45) = (  -0.2500000   0.0000000  -0.3722466), wk =   0.0625000
        k(   46) = (  -0.2500000   0.0000000   0.1240822), wk =   0.0000000
        k(   47) = (   0.0000000  -0.2500000  -0.7444933), wk =   0.0625000
        k(   48) = (   0.0000000  -0.2500000  -0.2481644), wk =   0.0000000
        k(   49) = (   0.0000000  -0.5000000  -0.3722466), wk =   0.0625000
        k(   50) = (   0.0000000  -0.5000000   0.1240822), wk =   0.0000000
        k(   51) = (  -0.2500000  -0.2500000   0.0000000), wk =   0.0312500
        k(   52) = (  -0.2500000  -0.2500000   0.4963289), wk =   0.0000000
        k(   53) = (   0.2500000  -0.2500000   0.0000000), wk =   0.0625000
        k(   54) = (   0.2500000  -0.2500000   0.4963289), wk =   0.0000000
        k(   55) = (   0.2500000   0.2500000  -0.3722466), wk =   0.0312500
        k(   56) = (   0.2500000   0.2500000   0.1240822), wk =   0.0000000
        k(   57) = (  -0.2500000  -0.2500000   0.3722466), wk =   0.0312500
        k(   58) = (  -0.2500000  -0.2500000   0.8685755), wk =   0.0000000
        k(   59) = (  -0.2500000  -0.2500000  -0.3722466), wk =   0.0312500
        k(   60) = (  -0.2500000  -0.2500000   0.1240822), wk =   0.0000000
        k(   61) = (   0.2500000  -0.2500000   0.3722466), wk =   0.0625000
        k(   62) = (   0.2500000  -0.2500000   0.8685755), wk =   0.0000000
        k(   63) = (  -0.2500000   0.2500000  -0.3722466), wk =   0.0625000
        k(   64) = (  -0.2500000   0.2500000   0.1240822), wk =   0.0000000
        k(   65) = (  -0.2500000  -0.2500000  -0.7444933), wk =   0.0312500
        k(   66) = (  -0.2500000  -0.2500000  -0.2481644), wk =   0.0000000
        k(   67) = (   0.2500000  -0.2500000  -0.7444933), wk =   0.0625000
        k(   68) = (   0.2500000  -0.2500000  -0.2481644), wk =   0.0000000
        k(   69) = (  -0.2500000   0.5000000   0.0000000), wk =   0.0625000
        k(   70) = (  -0.2500000   0.5000000   0.4963289), wk =   0.0000000
        k(   71) = (   0.2500000  -0.5000000  -0.3722466), wk =   0.0625000
        k(   72) = (   0.2500000  -0.5000000   0.1240822), wk =   0.0000000
        k(   73) = (  -0.2500000   0.5000000   0.3722466), wk =   0.0625000
        k(   74) = (  -0.2500000   0.5000000   0.8685755), wk =   0.0000000
        k(   75) = (   0.5000000  -0.2500000  -0.3722466), wk =   0.0625000
        k(   76) = (   0.5000000  -0.2500000   0.1240822), wk =   0.0000000
        k(   77) = (  -0.2500000   0.5000000  -0.7444933), wk =   0.0625000
        k(   78) = (  -0.2500000   0.5000000  -0.2481644), wk =   0.0000000
        k(   79) = (  -0.5000000  -0.5000000  -0.3722466), wk =   0.0312500
        k(   80) = (  -0.5000000  -0.5000000   0.1240822), wk =   0.0000000

     Dense  grid:    44945 G-vectors     FFT dimensions: (  54,  54,  36)

     Estimated max dynamical RAM per process >      15.29 MB

     Estimated total dynamical RAM >      61.15 MB

     Check: negative/imaginary core charge=   -0.000002    0.000000

     The potential is recalculated from file :
     ./_ph0/333.save/charge-density.dat

     Starting wfc are   34 atomic wfcs

     Band Structure Calculation
     Davidson diagonalization with overlap

     ethr =  1.92E-11,  avg # of iterations = 12.1

     total cpu time spent up to now is       94.0 secs

     End of band structure calculation

          k = 0.0000 0.0000 0.0000 (  5609 PWs)   bands (ev):

   -12.1626 -11.5450 -11.3470 -11.3189 -11.3189 -11.2385 -11.2181 -11.1520
   -11.1404 -11.1404  -9.6859  -7.9707  -7.9707  -6.5142   0.9520   5.0331
     5.0331   5.1380   6.0354   6.8925   6.9464   7.6277   7.6277   8.1988
     8.1988   8.9050

          k = 0.0000 0.0000 0.4963 (  5605 PWs)   bands (ev):

   -11.8159 -11.8159 -11.7951 -11.3790 -11.2150 -11.2089 -11.2089 -11.1983
   -11.1903 -11.1574  -9.0046  -7.2629  -7.0309  -7.0309   1.1320   3.3583
     4.7995   5.3528   5.3528   5.9612   5.9854   5.9854   6.7037   7.9725
     7.9725   8.1527

          k = 0.0000 0.0000 0.3722 (  5617 PWs)   bands (ev):

   -11.9331 -11.6684 -11.6684 -11.3667 -11.2649 -11.2522 -11.2009 -11.1882
   -11.1882 -11.1543  -9.3178  -7.3321  -7.3321  -6.9288   1.0010   4.3325
     4.8040   5.4731   5.4731   6.1603   6.1603   6.3414   6.4217   8.1120
     8.1120   8.4645

          k = 0.0000 0.0000 0.8686 (  5613 PWs)   bands (ev):

   -11.9153 -11.9153 -11.6587 -11.4440 -11.2237 -11.2237 -11.1796 -11.1697
   -11.1626 -11.1519  -8.6013  -7.6800  -6.8130  -6.8130   1.4081   2.5247
     4.9378   4.9931   4.9931   5.5632   6.2109   6.2109   7.0408   7.7925
     7.8164   7.8164

          k = 0.0000 0.0000-0.7445 (  5592 PWs)   bands (ev):

   -11.9501 -11.9501 -11.5390 -11.5390 -11.2291 -11.2291 -11.1701 -11.1701
   -11.1439 -11.1439  -8.1430  -8.1430  -6.7335  -6.7335   1.8690   1.8690
     4.8539   4.8539   5.2050   5.2050   6.3255   6.3255   7.4124   7.4124
     7.7393   7.7393

          k = 0.0000 0.0000-0.2482 (  5645 PWs)   bands (ev):

   -12.0526 -11.5040 -11.5040 -11.4384 -11.3082 -11.2537 -11.2099 -11.1664
   -11.1664 -11.1528  -9.5295  -7.6427  -7.6427  -6.6942   0.9578   4.9226
     5.2588   5.2588   5.3871   6.2103   6.6500   6.7915   6.7915   8.1964
     8.1964   8.7039

          k = 0.0000 0.2500 0.0000 (  5635 PWs)   bands (ev):

   -12.0830 -11.6330 -11.3440 -11.3157 -11.3156 -11.2902 -11.2072 -11.1604
   -11.1443 -11.1441  -9.4985  -8.3184  -7.6929  -6.6391   1.3608   4.0371
     5.3004   5.3527   6.3468   6.5918   7.1183   7.2886   7.6484   7.6813
     8.2276   8.6421

          k = 0.0000 0.2500 0.4963 (  5639 PWs)   bands (ev):

   -11.9560 -11.9012 -11.5835 -11.3335 -11.2287 -11.2201 -11.1957 -11.1894
   -11.1811 -11.1597  -8.8944  -7.8240  -6.9059  -6.7309   1.4734   3.1147
     4.0877   4.5049   5.3615   5.3996   6.7831   7.0351   7.1175   7.9099
     8.0415   8.2170

          k = 0.0000 0.2500 0.3722 (  5630 PWs)   bands (ev):

   -11.9344 -11.7627 -11.5918 -11.3650 -11.2619 -11.2483 -11.1968 -11.1830
   -11.1822 -11.1584  -9.1511  -7.8801  -7.1617  -6.7338   1.4021   3.8184
     4.2377   4.5802   5.8786   5.9479   6.4348   6.9891   7.1456   8.0315
     8.0601   8.4349

          k = 0.0000 0.2500 0.8686 (  5617 PWs)   bands (ev):

   -12.0151 -11.9982 -11.5011 -11.3611 -11.2302 -11.2255 -11.1749 -11.1629
   -11.1615 -11.1495  -8.5812  -7.9671  -6.7213  -6.6740   1.6455   2.4620
     4.0745   4.3633   5.0347   5.0634   7.0284   7.0831   7.2993   7.7984
     7.9308   7.9610

          k = 0.0000 0.2500-0.7445 (  5594 PWs)   bands (ev):

   -12.0366 -12.0366 -11.4196 -11.4196 -11.2323 -11.2323 -11.1677 -11.1677
   -11.1383 -11.1383  -8.2496  -8.2496  -6.6471  -6.6471   1.9678   1.9678
     4.1742   4.1742   4.9509   4.9509   7.1072   7.1072   7.6026   7.6026
     7.8400   7.8400

          k = 0.0000 0.2500-0.2482 (  5625 PWs)   bands (ev):

   -11.9934 -11.6321 -11.4898 -11.4269 -11.2987 -11.2545 -11.2010 -11.1666
   -11.1660 -11.1572  -9.3392  -8.0649  -7.4235  -6.6915   1.3764   4.0982
     4.5323   5.1085   6.0234   6.3166   6.6248   7.0821   7.3036   7.8894
     8.1714   8.5734

          k = 0.0000-0.5000 0.0000 (  5638 PWs)   bands (ev):

   -11.8700 -11.8700 -11.3317 -11.3317 -11.3122 -11.3122 -11.1826 -11.1826
   -11.1481 -11.1481  -8.9779  -8.9779  -7.1034  -7.1034   2.5030   2.5030
     5.9181   5.9181   6.0414   6.0415   7.0261   7.0261   7.6873   7.6873
     8.3164   8.3165

          k = 0.0000-0.5000 0.4963 (  5638 PWs)   bands (ev):

   -11.9865 -11.9865 -11.3866 -11.3866 -11.2329 -11.2329 -11.1851 -11.1851
   -11.1673 -11.1673  -8.4838  -8.4838  -6.7050  -6.7049   2.3494   2.3494
     3.7588   3.7588   5.3366   5.3366   7.3490   7.3490   7.7790   7.7790
     8.1048   8.1048

          k = 0.0000-0.5000 0.3722 (  5634 PWs)   bands (ev):

   -11.8849 -11.8849 -11.4498 -11.4498 -11.2540 -11.2540 -11.1863 -11.1863
   -11.1693 -11.1693  -8.6283  -8.6282  -6.8411  -6.8411   2.4886   2.4886
     4.0708   4.0708   5.8511   5.8511   7.3812   7.3812   7.5712   7.5712
     8.1511   8.1511

          k = 0.0000-0.5000 0.8686 (  5610 PWs)   bands (ev):

   -12.0682 -12.0682 -11.3425 -11.3425 -11.2282 -11.2282 -11.1670 -11.1670
   -11.1516 -11.1516  -8.3849  -8.3849  -6.6053  -6.6053   2.1867   2.1867
     3.6242   3.6242   5.0035   5.0035   7.2810   7.2810   7.8942   7.8942
     8.1178   8.1178

          k = 0.0000-0.5000-0.7445 (  5596 PWs)   bands (ev):

   -12.0981 -12.0981 -11.3303 -11.3303 -11.2286 -11.2286 -11.1655 -11.1655
   -11.1324 -11.1324  -8.3496  -8.3496  -6.5691  -6.5691   2.1188   2.1188
     3.5832   3.5832   4.8956   4.8956   7.2474   7.2474   7.9227   7.9227
     8.1384   8.1384

          k = 0.0000-0.5000-0.2482 (  5612 PWs)   bands (ev):

   -11.8338 -11.8338 -11.4551 -11.4551 -11.2752 -11.2752 -11.1812 -11.1812
   -11.1636 -11.1636  -8.7898  -8.7898  -6.9747  -6.9747   2.5283   2.5284
     4.6145   4.6146   6.3846   6.3846   7.1823   7.1823   7.4990   7.4990
     8.2293   8.2293

          k = 0.2500 0.2500 0.0000 (  5644 PWs)   bands (ev):

   -12.0375 -11.7201 -11.3389 -11.3199 -11.3122 -11.3078 -11.1990 -11.1658
   -11.1481 -11.1400  -9.2878  -8.0564  -8.0220  -6.8412   1.7902   3.9375
     5.0821   5.5257   6.4141   6.5477   6.6397   7.3105   7.5926   7.6908
     8.1406   8.4626

          k = 0.2500 0.2500 0.4963 (  5617 PWs)   bands (ev):

   -11.9908 -11.8202 -11.6475 -11.3421 -11.2324 -11.2127 -11.2040 -11.1845
   -11.1777 -11.1619  -8.7364  -7.8558  -7.0703  -6.6786   1.5730   2.5938
     4.0340   4.9524   5.0026   5.9326   6.1044   7.3707   7.5788   7.9183
     8.0451   8.2546

          k = 0.2500 0.2500 0.3722 (  5619 PWs)   bands (ev):

   -11.9181 -11.7073 -11.6720 -11.3993 -11.2635 -11.2417 -11.1954 -11.1827
   -11.1813 -11.1620  -8.9495  -7.8533  -7.3754  -6.7581   1.6761   3.0420
     4.3785   5.4140   5.5583   5.6169   6.1935   7.2401   7.5908   7.8376
     8.1151   8.4311

          k = 0.2500 0.2500 0.8686 (  5612 PWs)   bands (ev):

   -12.0685 -11.9200 -11.5757 -11.3235 -11.2317 -11.2271 -11.1717 -11.1632
   -11.1598 -11.1504  -8.5027  -7.9602  -6.8493  -6.6000   1.5023   2.2241
     3.9174   4.5573   4.6061   6.0723   6.2210   7.5487   7.6397   7.8908
     7.9464   8.0412

          k = 0.2500 0.2500-0.7445 (  5618 PWs)   bands (ev):

   -12.0979 -11.9549 -11.5470 -11.3216 -11.2351 -11.2324 -11.1677 -11.1654
   -11.1381 -11.1347  -8.3504  -8.0699  -6.7685  -6.5670   1.4858   2.0749
     3.8987   4.4074   4.4641   6.0556   6.3450   7.7137   7.7349   7.7753
     7.8297   7.9584

          k = 0.2500 0.2500-0.2482 (  5622 PWs)   bands (ev):

   -11.9501 -11.6875 -11.5066 -11.4395 -11.2996 -11.2597 -11.1941 -11.1689
   -11.1667 -11.1611  -9.1225  -7.9312  -7.6898  -6.8094   1.7522   3.4646
     4.9973   5.3292   5.5990   6.1406   6.5627   7.2194   7.5795   7.6771
     8.1551   8.5160

          k = 0.2500-0.5000 0.0000 (  5618 PWs)   bands (ev):

   -11.9006 -11.9006 -11.3270 -11.3270 -11.3167 -11.3167 -11.1810 -11.1810
   -11.1437 -11.1437  -8.7233  -8.7233  -7.4108  -7.4108   2.8779   2.8780
     5.6841   5.6841   5.9623   5.9623   7.0423   7.0423   7.6243   7.6243
     8.1879   8.1879

          k = 0.2500-0.5000 0.4963 (  5612 PWs)   bands (ev):

   -11.9277 -11.9277 -11.4891 -11.4891 -11.2243 -11.2243 -11.1914 -11.1914
   -11.1685 -11.1685  -8.2861  -8.2861  -6.8758  -6.8758   1.9212   1.9212
     4.5552   4.5552   5.1476   5.1476   7.2929   7.2929   7.7614   7.7614
     8.1559   8.1559

          k = 0.2500-0.5000 0.3722 (  5614 PWs)   bands (ev):

   -11.8370 -11.8370 -11.5315 -11.5315 -11.2534 -11.2534 -11.1885 -11.1885
   -11.1712 -11.1712  -8.4033  -8.4033  -7.0693  -7.0692   2.3004   2.3004
     4.7130   4.7130   5.5675   5.5675   7.0920   7.0920   7.7073   7.7073
     8.2208   8.2209

          k = 0.2500-0.5000 0.8686 (  5606 PWs)   bands (ev):

   -12.0100 -12.0100 -11.4436 -11.4436 -11.2289 -11.2289 -11.1666 -11.1666
   -11.1547 -11.1547  -8.2103  -8.2103  -6.7278  -6.7278   1.6365   1.6365
     4.3135   4.3135   5.0483   5.0483   7.3874   7.3874   7.8433   7.8433
     8.0786   8.0786

          k = 0.2500-0.5000-0.7445 (  5604 PWs)   bands (ev):

   -12.0406 -12.0406 -11.4276 -11.4276 -11.2329 -11.2329 -11.1655 -11.1655
   -11.1361 -11.1361  -8.1840  -8.1840  -6.6727  -6.6727   1.5327   1.5327
     4.1982   4.1982   5.0515   5.0515   7.4067   7.4067   7.9052   7.9052
     8.0266   8.0266

          k = 0.2500-0.5000-0.2482 (  5624 PWs)   bands (ev):

   -11.8302 -11.8302 -11.4812 -11.4812 -11.2844 -11.2844 -11.1791 -11.1791
   -11.1652 -11.1652  -8.5448  -8.5448  -7.2490  -7.2490   2.6355   2.6355
     4.9272   4.9272   6.1319   6.1319   6.8306   6.8306   7.6674   7.6675
     8.2469   8.2469

          k =-0.5000-0.5000 0.0000 (  5660 PWs)   bands (ev):

   -11.9293 -11.9293 -11.3230 -11.3230 -11.3209 -11.3209 -11.1795 -11.1795
   -11.1395 -11.1395  -8.1118  -8.1118  -8.0734  -8.0734   3.3760   3.3760
     5.1949   5.1949   6.0098   6.0098   7.0698   7.0698   7.5579   7.5579
     8.0637   8.0637

          k =-0.5000-0.5000 0.4963 (  5588 PWs)   bands (ev):

   -11.8242 -11.8242 -11.6334 -11.6334 -11.2104 -11.2104 -11.2036 -11.2036
   -11.1690 -11.1690  -8.0289  -8.0289  -7.1094  -7.1094   1.6652   1.6652
     4.6991   4.6991   6.0408   6.0408   6.3758   6.3758   8.0749   8.0749
     8.1276   8.1276

          k =-0.5000-0.5000 0.3722 (  5584 PWs)   bands (ev):

   -11.7262 -11.7262 -11.6753 -11.6753 -11.2527 -11.2527 -11.1894 -11.1894
   -11.1725 -11.1725  -8.0593  -8.0593  -7.4185  -7.4185   2.1830   2.1830
     5.2528   5.2528   5.7905   5.7905   6.2771   6.2771   8.0666   8.0666
     8.1061   8.1061

          k =-0.5000-0.5000 0.8686 (  5612 PWs)   bands (ev):

   -11.9244 -11.9244 -11.5721 -11.5721 -11.2254 -11.2254 -11.1664 -11.1664
   -11.1586 -11.1586  -8.0044  -8.0044  -6.8853  -6.8853   1.3048   1.3048
     4.2986   4.2986   6.2843   6.2843   6.4428   6.4428   8.0326   8.0326
     8.1434   8.1434

          k =-0.5000-0.5000-0.7445 (  5616 PWs)   bands (ev):

   -11.9595 -11.9595 -11.5515 -11.5515 -11.2309 -11.2309 -11.1655 -11.1655
   -11.1398 -11.1398  -7.9949  -7.9949  -6.8032  -6.8032   1.1759   1.1759
     4.1551   4.1551   6.3856   6.3856   6.4667   6.4667   8.0043   8.0043
     8.1493   8.1493

          k =-0.5000-0.5000-0.2482 (  5624 PWs)   bands (ev):

   -11.8260 -11.8260 -11.5088 -11.5088 -11.2913 -11.2913 -11.1760 -11.1760
   -11.1671 -11.1671  -8.0868  -8.0868  -7.7368  -7.7368   2.7439   2.7439
     5.3989   5.3989   6.0719   6.0719   6.1618   6.1618   7.9697   7.9697
     8.0848   8.0848

          k = 0.0000 0.0000-0.3722 (  5617 PWs)   bands (ev):

   -11.9331 -11.6684 -11.6684 -11.3667 -11.2649 -11.2522 -11.2009 -11.1882
   -11.1882 -11.1543  -9.3178  -7.3321  -7.3321  -6.9288   1.0010   4.3325
     4.8040   5.4731   5.4731   6.1603   6.1603   6.3414   6.4217   8.1120
     8.1120   8.4645

          k = 0.0000 0.0000 0.1241 (  5633 PWs)   bands (ev):

   -12.1339 -11.5150 -11.3705 -11.3705 -11.3370 -11.2427 -11.2160 -11.1522
   -11.1484 -11.1484  -9.6481  -7.8805  -7.8805  -6.5583   0.9513   5.0707
     5.0924   5.0924   6.0796   6.3939   6.8492   7.3717   7.3717   8.2160
     8.2160   8.8540

          k = 0.0000-0.2500 0.0000 (  5635 PWs)   bands (ev):

   -12.0830 -11.6330 -11.3440 -11.3157 -11.3156 -11.2902 -11.2072 -11.1604
   -11.1443 -11.1441  -9.4985  -8.3184  -7.6929  -6.6391   1.3608   4.0371
     5.3004   5.3527   6.3468   6.5918   7.1183   7.2886   7.6484   7.6813
     8.2276   8.6421

          k = 0.0000-0.2500 0.4963 (  5639 PWs)   bands (ev):

   -11.9560 -11.9012 -11.5835 -11.3335 -11.2287 -11.2201 -11.1957 -11.1894
   -11.1811 -11.1597  -8.8944  -7.8240  -6.9059  -6.7309   1.4734   3.1147
     4.0877   4.5049   5.3615   5.3996   6.7831   7.0351   7.1175   7.9099
     8.0415   8.2170

          k = 0.0000 0.2500-0.3722 (  5630 PWs)   bands (ev):

   -11.9344 -11.7627 -11.5918 -11.3650 -11.2619 -11.2483 -11.1968 -11.1830
   -11.1822 -11.1584  -9.1511  -7.8801  -7.1617  -6.7338   1.4021   3.8184
     4.2377   4.5802   5.8786   5.9479   6.4348   6.9891   7.1456   8.0315
     8.0601   8.4349

          k = 0.0000 0.2500 0.1241 (  5614 PWs)   bands (ev):

   -12.0578 -11.6151 -11.3811 -11.3775 -11.3211 -11.2648 -11.2055 -11.1606
   -11.1510 -11.1490  -9.4571  -8.2450  -7.6198  -6.6531   1.3649   4.0637
     4.9213   5.6982   5.9736   6.3580   7.1363   7.4500   7.4599   7.5984
     8.2224   8.6331

          k = 0.0000-0.2500 0.3722 (  5630 PWs)   bands (ev):

   -11.9344 -11.7627 -11.5918 -11.3650 -11.2619 -11.2483 -11.1968 -11.1830
   -11.1822 -11.1584  -9.1511  -7.8801  -7.1617  -6.7338   1.4021   3.8184
     4.2377   4.5802   5.8786   5.9479   6.4348   6.9891   7.1456   8.0315
     8.0601   8.4349

          k = 0.0000-0.2500 0.8686 (  5617 PWs)   bands (ev):

   -12.0151 -11.9982 -11.5011 -11.3611 -11.2302 -11.2255 -11.1749 -11.1629
   -11.1615 -11.1495  -8.5812  -7.9671  -6.7213  -6.6740   1.6455   2.4620
     4.0745   4.3633   5.0347   5.0634   7.0284   7.0831   7.2993   7.7984
     7.9308   7.9610

          k =-0.2500 0.0000-0.3722 (  5630 PWs)   bands (ev):

   -11.9344 -11.7627 -11.5918 -11.3650 -11.2619 -11.2483 -11.1968 -11.1830
   -11.1822 -11.1584  -9.1511  -7.8801  -7.1617  -6.7338   1.4021   3.8184
     4.2377   4.5802   5.8786   5.9479   6.4348   6.9891   7.1456   8.0315
     8.0601   8.4349

          k =-0.2500 0.0000 0.1241 (  5614 PWs)   bands (ev):

   -12.0578 -11.6151 -11.3811 -11.3775 -11.3211 -11.2648 -11.2055 -11.1606
   -11.1510 -11.1490  -9.4571  -8.2450  -7.6198  -6.6531   1.3649   4.0637
     4.9213   5.6982   5.9736   6.3580   7.1363   7.4500   7.4599   7.5984
     8.2224   8.6331

          k = 0.0000-0.2500-0.7445 (  5594 PWs)   bands (ev):

   -12.0366 -12.0366 -11.4196 -11.4196 -11.2323 -11.2323 -11.1677 -11.1677
   -11.1383 -11.1383  -8.2496  -8.2496  -6.6471  -6.6471   1.9678   1.9678
     4.1742   4.1742   4.9509   4.9509   7.1072   7.1072   7.6026   7.6026
     7.8400   7.8400

          k = 0.0000-0.2500-0.2482 (  5625 PWs)   bands (ev):

   -11.9934 -11.6321 -11.4898 -11.4269 -11.2987 -11.2545 -11.2010 -11.1666
   -11.1660 -11.1572  -9.3392  -8.0649  -7.4235  -6.6915   1.3764   4.0982
     4.5323   5.1085   6.0234   6.3166   6.6248   7.0821   7.3036   7.8894
     8.1714   8.5734

          k = 0.0000-0.5000-0.3722 (  5634 PWs)   bands (ev):

   -11.8849 -11.8849 -11.4498 -11.4498 -11.2540 -11.2540 -11.1863 -11.1863
   -11.1693 -11.1693  -8.6283  -8.6282  -6.8411  -6.8411   2.4886   2.4886
     4.0708   4.0708   5.8511   5.8511   7.3812   7.3812   7.5712   7.5712
     8.1511   8.1511

          k = 0.0000-0.5000 0.1241 (  5632 PWs)   bands (ev):

   -11.8533 -11.8533 -11.3840 -11.3840 -11.2932 -11.2932 -11.1819 -11.1819
   -11.1528 -11.1528  -8.9241  -8.9241  -7.0695  -7.0695   2.5141   2.5141
     5.2954   5.2954   6.5031   6.5031   6.9885   6.9885   7.5990   7.5990
     8.2930   8.2930

          k =-0.2500-0.2500 0.0000 (  5644 PWs)   bands (ev):

   -12.0375 -11.7201 -11.3389 -11.3199 -11.3122 -11.3078 -11.1990 -11.1658
   -11.1481 -11.1400  -9.2878  -8.0564  -8.0220  -6.8412   1.7902   3.9375
     5.0821   5.5257   6.4141   6.5477   6.6397   7.3105   7.5926   7.6908
     8.1406   8.4626

          k =-0.2500-0.2500 0.4963 (  5617 PWs)   bands (ev):

   -11.9908 -11.8202 -11.6475 -11.3421 -11.2324 -11.2127 -11.2040 -11.1845
   -11.1777 -11.1619  -8.7364  -7.8558  -7.0703  -6.6786   1.5730   2.5938
     4.0340   4.9524   5.0026   5.9326   6.1044   7.3707   7.5788   7.9183
     8.0451   8.2546

          k = 0.2500-0.2500 0.0000 (  5644 PWs)   bands (ev):

   -12.0375 -11.7201 -11.3389 -11.3199 -11.3122 -11.3078 -11.1990 -11.1658
   -11.1481 -11.1400  -9.2878  -8.0564  -8.0220  -6.8412   1.7902   3.9375
     5.0821   5.5257   6.4141   6.5477   6.6397   7.3105   7.5926   7.6908
     8.1406   8.4626

          k = 0.2500-0.2500 0.4963 (  5617 PWs)   bands (ev):

   -11.9908 -11.8202 -11.6475 -11.3421 -11.2324 -11.2127 -11.2040 -11.1845
   -11.1777 -11.1619  -8.7364  -7.8558  -7.0703  -6.6786   1.5730   2.5938
     4.0340   4.9524   5.0026   5.9326   6.1044   7.3707   7.5788   7.9183
     8.0451   8.2546

          k = 0.2500 0.2500-0.3722 (  5619 PWs)   bands (ev):

   -11.9181 -11.7073 -11.6720 -11.3993 -11.2635 -11.2417 -11.1954 -11.1827
   -11.1813 -11.1620  -8.9495  -7.8533  -7.3754  -6.7581   1.6761   3.0420
     4.3785   5.4140   5.5583   5.6169   6.1935   7.2401   7.5908   7.8376
     8.1151   8.4311

          k = 0.2500 0.2500 0.1241 (  5624 PWs)   bands (ev):

   -12.0123 -11.7021 -11.3838 -11.3720 -11.3232 -11.2770 -11.1976 -11.1656
   -11.1532 -11.1479  -9.2429  -8.0195  -7.9306  -6.8341   1.7837   3.8004
     5.1460   5.5589   5.7682   6.4748   6.9842   7.2490   7.4111   7.6933
     8.1600   8.5008

          k =-0.2500-0.2500 0.3722 (  5619 PWs)   bands (ev):

   -11.9181 -11.7073 -11.6720 -11.3993 -11.2635 -11.2417 -11.1954 -11.1827
   -11.1813 -11.1620  -8.9495  -7.8533  -7.3754  -6.7581   1.6761   3.0420
     4.3785   5.4140   5.5583   5.6169   6.1935   7.2401   7.5908   7.8376
     8.1151   8.4311

          k =-0.2500-0.2500 0.8686 (  5612 PWs)   bands (ev):

   -12.0685 -11.9200 -11.5757 -11.3235 -11.2317 -11.2271 -11.1717 -11.1632
   -11.1598 -11.1504  -8.5027  -7.9602  -6.8493  -6.6000   1.5023   2.2241
     3.9174   4.5573   4.6061   6.0723   6.2210   7.5487   7.6397   7.8908
     7.9464   8.0412

          k =-0.2500-0.2500-0.3722 (  5619 PWs)   bands (ev):

   -11.9181 -11.7073 -11.6720 -11.3993 -11.2635 -11.2417 -11.1954 -11.1827
   -11.1813 -11.1620  -8.9495  -7.8533  -7.3754  -6.7581   1.6761   3.0420
     4.3785   5.4140   5.5583   5.6169   6.1935   7.2401   7.5908   7.8376
     8.1151   8.4311

          k =-0.2500-0.2500 0.1241 (  5624 PWs)   bands (ev):

   -12.0123 -11.7021 -11.3838 -11.3720 -11.3232 -11.2770 -11.1976 -11.1656
   -11.1532 -11.1479  -9.2429  -8.0195  -7.9306  -6.8341   1.7837   3.8004
     5.1460   5.5589   5.7682   6.4748   6.9842   7.2490   7.4111   7.6933
     8.1600   8.5008

          k = 0.2500-0.2500 0.3722 (  5619 PWs)   bands (ev):

   -11.9181 -11.7073 -11.6720 -11.3993 -11.2635 -11.2417 -11.1954 -11.1827
   -11.1813 -11.1620  -8.9495  -7.8533  -7.3754  -6.7581   1.6761   3.0420
     4.3785   5.4140   5.5583   5.6169   6.1935   7.2401   7.5908   7.8376
     8.1151   8.4311

          k = 0.2500-0.2500 0.8686 (  5612 PWs)   bands (ev):

   -12.0685 -11.9200 -11.5757 -11.3235 -11.2317 -11.2271 -11.1717 -11.1632
   -11.1598 -11.1504  -8.5027  -7.9602  -6.8493  -6.6000   1.5023   2.2241
     3.9174   4.5573   4.6061   6.0723   6.2210   7.5487   7.6397   7.8908
     7.9464   8.0412

          k =-0.2500 0.2500-0.3722 (  5619 PWs)   bands (ev):

   -11.9181 -11.7073 -11.6720 -11.3993 -11.2635 -11.2417 -11.1954 -11.1827
   -11.1813 -11.1620  -8.9495  -7.8533  -7.3754  -6.7581   1.6761   3.0420
     4.3785   5.4140   5.5583   5.6169   6.1935   7.2401   7.5908   7.8376
     8.1151   8.4311

          k =-0.2500 0.2500 0.1241 (  5624 PWs)   bands (ev):

   -12.0123 -11.7021 -11.3838 -11.3720 -11.3232 -11.2770 -11.1976 -11.1656
   -11.1532 -11.1479  -9.2429  -8.0195  -7.9306  -6.8341   1.7837   3.8004
     5.1460   5.5589   5.7682   6.4748   6.9842   7.2490   7.4111   7.6933
     8.1600   8.5008

          k =-0.2500-0.2500-0.7445 (  5618 PWs)   bands (ev):

   -12.0979 -11.9549 -11.5470 -11.3216 -11.2351 -11.2324 -11.1677 -11.1654
   -11.1381 -11.1347  -8.3504  -8.0699  -6.7685  -6.5670   1.4858   2.0749
     3.8987   4.4074   4.4641   6.0556   6.3450   7.7137   7.7349   7.7753
     7.8297   7.9584

          k =-0.2500-0.2500-0.2482 (  5622 PWs)   bands (ev):

   -11.9501 -11.6875 -11.5066 -11.4395 -11.2996 -11.2597 -11.1941 -11.1689
   -11.1667 -11.1611  -9.1225  -7.9312  -7.6898  -6.8094   1.7522   3.4646
     4.9973   5.3292   5.5990   6.1406   6.5627   7.2194   7.5795   7.6771
     8.1551   8.5160

          k = 0.2500-0.2500-0.7445 (  5618 PWs)   bands (ev):

   -12.0979 -11.9549 -11.5470 -11.3216 -11.2351 -11.2324 -11.1677 -11.1654
   -11.1381 -11.1347  -8.3504  -8.0699  -6.7685  -6.5670   1.4858   2.0749
     3.8987   4.4074   4.4641   6.0556   6.3450   7.7137   7.7349   7.7753
     7.8297   7.9584

          k = 0.2500-0.2500-0.2482 (  5622 PWs)   bands (ev):

   -11.9501 -11.6875 -11.5066 -11.4395 -11.2996 -11.2597 -11.1941 -11.1689
   -11.1667 -11.1611  -9.1225  -7.9312  -7.6898  -6.8094   1.7522   3.4646
     4.9973   5.3292   5.5990   6.1406   6.5627   7.2194   7.5795   7.6771
     8.1551   8.5160

          k =-0.2500 0.5000 0.0000 (  5618 PWs)   bands (ev):

   -11.9006 -11.9006 -11.3270 -11.3270 -11.3167 -11.3167 -11.1810 -11.1810
   -11.1437 -11.1437  -8.7233  -8.7233  -7.4108  -7.4108   2.8779   2.8780
     5.6841   5.6841   5.9623   5.9623   7.0423   7.0423   7.6243   7.6243
     8.1879   8.1879

          k =-0.2500 0.5000 0.4963 (  5612 PWs)   bands (ev):

   -11.9277 -11.9277 -11.4891 -11.4891 -11.2243 -11.2243 -11.1914 -11.1914
   -11.1685 -11.1685  -8.2861  -8.2861  -6.8758  -6.8758   1.9212   1.9212
     4.5552   4.5552   5.1476   5.1476   7.2929   7.2929   7.7614   7.7614
     8.1559   8.1559

          k = 0.2500-0.5000-0.3722 (  5614 PWs)   bands (ev):

   -11.8370 -11.8370 -11.5315 -11.5315 -11.2534 -11.2534 -11.1885 -11.1885
   -11.1712 -11.1712  -8.4033  -8.4033  -7.0693  -7.0692   2.3004   2.3004
     4.7130   4.7130   5.5675   5.5675   7.0920   7.0920   7.7073   7.7073
     8.2208   8.2209

          k = 0.2500-0.5000 0.1241 (  5618 PWs)   bands (ev):

   -11.8779 -11.8779 -11.3787 -11.3787 -11.3043 -11.3043 -11.1802 -11.1802
   -11.1504 -11.1504  -8.6710  -8.6710  -7.3694  -7.3694   2.8244   2.8245
     5.3143   5.3143   6.2642   6.2642   6.8547   6.8547   7.6373   7.6373
     8.2200   8.2200

          k =-0.2500 0.5000 0.3722 (  5614 PWs)   bands (ev):

   -11.8370 -11.8370 -11.5315 -11.5315 -11.2534 -11.2534 -11.1885 -11.1885
   -11.1712 -11.1712  -8.4033  -8.4033  -7.0693  -7.0692   2.3004   2.3004
     4.7130   4.7130   5.5675   5.5675   7.0920   7.0920   7.7073   7.7073
     8.2208   8.2209

          k =-0.2500 0.5000 0.8686 (  5606 PWs)   bands (ev):

   -12.0100 -12.0100 -11.4436 -11.4436 -11.2289 -11.2289 -11.1666 -11.1666
   -11.1547 -11.1547  -8.2103  -8.2103  -6.7278  -6.7278   1.6365   1.6365
     4.3135   4.3135   5.0483   5.0483   7.3874   7.3874   7.8433   7.8433
     8.0786   8.0786

          k = 0.5000-0.2500-0.3722 (  5614 PWs)   bands (ev):

   -11.8370 -11.8370 -11.5315 -11.5315 -11.2534 -11.2534 -11.1885 -11.1885
   -11.1712 -11.1712  -8.4033  -8.4033  -7.0693  -7.0692   2.3004   2.3004
     4.7130   4.7130   5.5675   5.5675   7.0920   7.0920   7.7073   7.7073
     8.2208   8.2209

          k = 0.5000-0.2500 0.1241 (  5618 PWs)   bands (ev):

   -11.8779 -11.8779 -11.3787 -11.3787 -11.3043 -11.3043 -11.1802 -11.1802
   -11.1504 -11.1504  -8.6710  -8.6710  -7.3694  -7.3694   2.8244   2.8245
     5.3143   5.3143   6.2642   6.2642   6.8547   6.8547   7.6373   7.6373
     8.2200   8.2200

          k =-0.2500 0.5000-0.7445 (  5604 PWs)   bands (ev):

   -12.0406 -12.0406 -11.4276 -11.4276 -11.2329 -11.2329 -11.1655 -11.1655
   -11.1361 -11.1361  -8.1840  -8.1840  -6.6727  -6.6727   1.5327   1.5327
     4.1982   4.1982   5.0515   5.0515   7.4067   7.4067   7.9052   7.9052
     8.0266   8.0266

          k =-0.2500 0.5000-0.2482 (  5624 PWs)   bands (ev):

   -11.8302 -11.8302 -11.4812 -11.4812 -11.2844 -11.2844 -11.1791 -11.1791
   -11.1652 -11.1652  -8.5448  -8.5448  -7.2490  -7.2490   2.6355   2.6355
     4.9272   4.9272   6.1319   6.1319   6.8306   6.8306   7.6674   7.6675
     8.2469   8.2469

          k =-0.5000-0.5000-0.3722 (  5584 PWs)   bands (ev):

   -11.7262 -11.7262 -11.6753 -11.6753 -11.2527 -11.2527 -11.1894 -11.1894
   -11.1725 -11.1725  -8.0593  -8.0593  -7.4185  -7.4185   2.1830   2.1830
     5.2528   5.2528   5.7905   5.7905   6.2771   6.2771   8.0666   8.0666
     8.1061   8.1061

          k =-0.5000-0.5000 0.1241 (  5628 PWs)   bands (ev):

   -11.9015 -11.9015 -11.3733 -11.3733 -11.3151 -11.3151 -11.1785 -11.1785
   -11.1481 -11.1481  -8.1053  -8.1053  -7.9807  -7.9807   3.1969   3.1969
     5.2524   5.2524   6.0563   6.0563   6.6967   6.6967   7.7650   7.7650
     8.0694   8.0694

     highest occupied level (ev):     8.9050

     Writing output data file 333.save

     Phonon dispersions for SnO2                                                

     bravais-lattice index     =            6
     lattice parameter (alat)  =       9.1370  a.u.
     unit-cell volume          =     512.3005 (a.u.)^3
     number of atoms/cell      =            6
     number of atomic types    =            2
     kinetic-energy cut-off    =      75.0000  Ry
     charge density cut-off    =     300.0000  Ry
     convergence threshold     =      1.0E-14
     beta                      =       0.7000
     number of iterations used =            4
     Exchange-correlation      = PBE ( 1  4  3  4 0 0)


     celldm(1)=    9.13703  celldm(2)=    1.00000  celldm(3)=    0.67160
     celldm(4)=    0.00000  celldm(5)=    0.00000  celldm(6)=    0.00000

     crystal axes: (cart. coord. in units of alat)
               a(1) = (  1.0000  0.0000  0.0000 )  
               a(2) = (  0.0000  1.0000  0.0000 )  
               a(3) = (  0.0000  0.0000  0.6716 )  

     reciprocal axes: (cart. coord. in units 2 pi/alat)
               b(1) = (  1.0000  0.0000  0.0000 )  
               b(2) = (  0.0000  1.0000  0.0000 )  
               b(3) = (  0.0000  0.0000  1.4890 )  


     Atoms inside the unit cell: 

     Cartesian axes

     site n.  atom      mass           positions (alat units)
        1     Sn 118.7100   tau(    1) = (   -0.00033   -0.00033    0.00000  )
        2     Sn 118.7100   tau(    2) = (    0.49967    0.49967    0.33580  )
        3     O   15.9990   tau(    3) = (    0.80637    0.19296    0.33580  )
        4     O   15.9990   tau(    4) = (    0.19296    0.80637    0.33580  )
        5     O   15.9990   tau(    5) = (    0.30637    0.30637    0.00000  )
        6     O   15.9990   tau(    6) = (    0.69296    0.69296    0.00000  )

     Computing dynamical matrix for 
                    q = (   0.0000000   0.0000000   0.4963289 )
 
      2 Sym.Ops. (no q -> -q+G )


     G cutoff =  634.4127  (  11237 G-vectors)     FFT grid: ( 54, 54, 36)
     number of k points=    80

     PseudoPot. # 1 for Sn read from file:
     ../../../Pseudo_potentials/Sn_PBE.upf
     MD5 check sum: 78e6386ae56e929f0568ae8bf606a80c
     Pseudo is Norm-conserving + core correction, Zval = 14.0
     Generated using ONCVPSP code by D. R. Hamann
     Using radial grid of 1628 points,  6 beta functions with: 
                l(1) =   0
                l(2) =   0
                l(3) =   1
                l(4) =   1
                l(5) =   2
                l(6) =   2

     PseudoPot. # 2 for O  read from file:
     ../../../Pseudo_potentials/O_PBE.upf
     MD5 check sum: 3e3f909f7470e8921608ab6b1f57bbae
     Pseudo is Norm-conserving + core correction, Zval =  6.0
     Generated using ONCVPSP code by D. R. Hamann
     Using radial grid of  936 points,  5 beta functions with: 
                l(1) =   0
                l(2) =   0
                l(3) =   1
                l(4) =   1
                l(5) =   2

     Mode symmetry, C_s (m)     point group:


     Atomic displacements:
     There are  18 irreducible representations

     Representation     1      1 modes -A'  To be done

     Representation     2      1 modes -A'  To be done

     Representation     3      1 modes -A'  To be done

     Representation     4      1 modes -A'  To be done

     Representation     5      1 modes -A'  To be done

     Representation     6      1 modes -A'  To be done

     Representation     7      1 modes -A'  To be done

     Representation     8      1 modes -A'  To be done

     Representation     9      1 modes -A'  To be done

     Representation    10      1 modes -A'  To be done

     Representation    11      1 modes -A'  To be done

     Representation    12      1 modes -A''  To be done

     Representation    13      1 modes -A''  To be done

     Representation    14      1 modes -A''  To be done

     Representation    15      1 modes -A''  To be done

     Representation    16      1 modes -A''  To be done

     Representation    17      1 modes -A''  To be done

     Representation    18      1 modes -A''  To be done



     Alpha used in Ewald sum =   2.7000
     PHONON       :     0h56m CPU        1h29m WALL



     Representation #  1 mode #   1

     Self-consistent Calculation

      iter #   1 total cpu time :  5410.6 secs   av.it.:   7.7
      thresh= 1.000E-02 alpha_mix =  0.700 |ddv_scf|^2 =  5.024E-05

      iter #   2 total cpu time :  5464.1 secs   av.it.:  12.1
      thresh= 7.088E-04 alpha_mix =  0.700 |ddv_scf|^2 =  1.565E-04

      iter #   3 total cpu time :  5512.1 secs   av.it.:  10.6
      thresh= 1.251E-03 alpha_mix =  0.700 |ddv_scf|^2 =  1.096E-06

      iter #   4 total cpu time :  5565.8 secs   av.it.:  12.0
      thresh= 1.047E-04 alpha_mix =  0.700 |ddv_scf|^2 =  1.277E-07

      iter #   5 total cpu time :  5617.0 secs   av.it.:  11.8
      thresh= 3.574E-05 alpha_mix =  0.700 |ddv_scf|^2 =  3.277E-09

      iter #   6 total cpu time :  5672.5 secs   av.it.:  12.3
      thresh= 5.724E-06 alpha_mix =  0.700 |ddv_scf|^2 =  6.534E-10

      iter #   7 total cpu time :  5727.0 secs   av.it.:  12.5
      thresh= 2.556E-06 alpha_mix =  0.700 |ddv_scf|^2 =  1.042E-10

      iter #   8 total cpu time :  5780.0 secs   av.it.:  11.9
      thresh= 1.021E-06 alpha_mix =  0.700 |ddv_scf|^2 =  6.651E-13

      iter #   9 total cpu time :  5838.6 secs   av.it.:  13.6
      thresh= 8.155E-08 alpha_mix =  0.700 |ddv_scf|^2 =  1.355E-13

      iter #  10 total cpu time :  5896.8 secs   av.it.:  13.5
      thresh= 3.681E-08 alpha_mix =  0.700 |ddv_scf|^2 =  8.344E-14

      iter #  11 total cpu time :  5951.7 secs   av.it.:  12.8
      thresh= 2.889E-08 alpha_mix =  0.700 |ddv_scf|^2 =  6.461E-14

      iter #  12 total cpu time :  6003.8 secs   av.it.:  11.9
      thresh= 2.542E-08 alpha_mix =  0.700 |ddv_scf|^2 =  1.294E-14

      iter #  13 total cpu time :  6059.1 secs   av.it.:  12.7
      thresh= 1.137E-08 alpha_mix =  0.700 |ddv_scf|^2 =  1.539E-14

      iter #  14 total cpu time :  6110.6 secs   av.it.:  11.5
      thresh= 1.241E-08 alpha_mix =  0.700 |ddv_scf|^2 =  2.678E-16

     End of self-consistent calculation

     Convergence has been achieved 


     Representation #  2 mode #   2

     Self-consistent Calculation

      iter #   1 total cpu time :  6152.9 secs   av.it.:   8.6
      thresh= 1.000E-02 alpha_mix =  0.700 |ddv_scf|^2 =  1.463E-04

      iter #   2 total cpu time :  6207.8 secs   av.it.:  12.4
      thresh= 1.210E-03 alpha_mix =  0.700 |ddv_scf|^2 =  5.103E-04

      iter #   3 total cpu time :  6256.1 secs   av.it.:  10.8
      thresh= 2.259E-03 alpha_mix =  0.700 |ddv_scf|^2 =  2.846E-06

      iter #   4 total cpu time :  6309.5 secs   av.it.:  12.2
      thresh= 1.687E-04 alpha_mix =  0.700 |ddv_scf|^2 =  7.319E-08

      iter #   5 total cpu time :  6364.2 secs   av.it.:  12.3
      thresh= 2.705E-05 alpha_mix =  0.700 |ddv_scf|^2 =  2.157E-08

      iter #   6 total cpu time :  6416.5 secs   av.it.:  11.9
      thresh= 1.469E-05 alpha_mix =  0.700 |ddv_scf|^2 =  3.881E-09

      iter #   7 total cpu time :  6469.0 secs   av.it.:  12.0
      thresh= 6.230E-06 alpha_mix =  0.700 |ddv_scf|^2 =  1.339E-10

      iter #   8 total cpu time :  6523.9 secs   av.it.:  12.2
      thresh= 1.157E-06 alpha_mix =  0.700 |ddv_scf|^2 =  6.907E-12

      iter #   9 total cpu time :  6580.1 secs   av.it.:  13.1
      thresh= 2.628E-07 alpha_mix =  0.700 |ddv_scf|^2 =  1.510E-12

      iter #  10 total cpu time :  6635.7 secs   av.it.:  12.8
      thresh= 1.229E-07 alpha_mix =  0.700 |ddv_scf|^2 =  3.350E-13

      iter #  11 total cpu time :  6690.9 secs   av.it.:  12.7
      thresh= 5.788E-08 alpha_mix =  0.700 |ddv_scf|^2 =  5.528E-14

      iter #  12 total cpu time :  6744.8 secs   av.it.:  12.7
      thresh= 2.351E-08 alpha_mix =  0.700 |ddv_scf|^2 =  5.327E-15

     End of self-consistent calculation

     Convergence has been achieved 


     Representation #  3 mode #   3

[...]
        5     O   15.9990   tau(    5) = (    0.30637    0.30637    0.00000  )
        6     O   15.9990   tau(    6) = (    0.69296    0.69296    0.00000  )

     Computing dynamical matrix for 
                    q = (   0.3333333  -0.3333333   0.4963289 )
 
     No symmetry!

     G cutoff =  634.4127  (  11237 G-vectors)     FFT grid: ( 54, 54, 36)
     number of k points=   128

     PseudoPot. # 1 for Sn read from file:
     ../../../Pseudo_potentials/Sn_PBE.upf
     MD5 check sum: 78e6386ae56e929f0568ae8bf606a80c
     Pseudo is Norm-conserving + core correction, Zval = 14.0
     Generated using ONCVPSP code by D. R. Hamann
     Using radial grid of 1628 points,  6 beta functions with: 
                l(1) =   0
                l(2) =   0
                l(3) =   1
                l(4) =   1
                l(5) =   2
                l(6) =   2

     PseudoPot. # 2 for O  read from file:
     ../../../Pseudo_potentials/O_PBE.upf
     MD5 check sum: 3e3f909f7470e8921608ab6b1f57bbae
     Pseudo is Norm-conserving + core correction, Zval =  6.0
     Generated using ONCVPSP code by D. R. Hamann
     Using radial grid of  936 points,  5 beta functions with: 
                l(1) =   0
                l(2) =   0
                l(3) =   1
                l(4) =   1
                l(5) =   2

     Mode symmetry, C_1 (1)     point group:


     Atomic displacements:
     There are  18 irreducible representations

     Representation     1      1 modes -A  To be done

     Representation     2      1 modes -A  To be done

     Representation     3      1 modes -A  To be done

     Representation     4      1 modes -A  To be done

     Representation     5      1 modes -A  To be done

     Representation     6      1 modes -A  To be done

     Representation     7      1 modes -A  To be done

     Representation     8      1 modes -A  To be done

     Representation     9      1 modes -A  To be done

     Representation    10      1 modes -A  To be done

     Representation    11      1 modes -A  To be done

     Representation    12      1 modes -A  To be done

     Representation    13      1 modes -A  To be done

     Representation    14      1 modes -A  To be done

     Representation    15      1 modes -A  To be done

     Representation    16      1 modes -A  To be done

     Representation    17      1 modes -A  To be done

     Representation    18      1 modes -A  To be done



     Alpha used in Ewald sum =   2.7000
     PHONON       :     0d   15h14m CPU        1d    0h10m WALL



     Representation #  1 mode #   1

     Self-consistent Calculation

      iter #   1 total cpu time : 87094.4 secs   av.it.:   8.0
      thresh= 1.000E-02 alpha_mix =  0.700 |ddv_scf|^2 =  8.745E-06

      iter #   2 total cpu time : 87201.6 secs   av.it.:  13.7
      thresh= 2.957E-04 alpha_mix =  0.700 |ddv_scf|^2 =  9.041E-06

      iter #   3 total cpu time : 87298.9 secs   av.it.:  12.6
      thresh= 3.007E-04 alpha_mix =  0.700 |ddv_scf|^2 =  6.318E-07

      iter #   4 total cpu time : 87396.2 secs   av.it.:  12.9
      thresh= 7.949E-05 alpha_mix =  0.700 |ddv_scf|^2 =  3.872E-08

      iter #   5 total cpu time : 87495.7 secs   av.it.:  13.1
      thresh= 1.968E-05 alpha_mix =  0.700 |ddv_scf|^2 =  2.370E-09

      iter #   6 total cpu time : 87596.0 secs   av.it.:  13.1
      thresh= 4.868E-06 alpha_mix =  0.700 |ddv_scf|^2 =  2.441E-10

      iter #   7 total cpu time : 87696.1 secs   av.it.:  13.5
      thresh= 1.562E-06 alpha_mix =  0.700 |ddv_scf|^2 =  2.705E-11

      iter #   8 total cpu time : 87798.2 secs   av.it.:  13.6
      thresh= 5.201E-07 alpha_mix =  0.700 |ddv_scf|^2 =  5.280E-12

      iter #   9 total cpu time : 87899.0 secs   av.it.:  13.6
      thresh= 2.298E-07 alpha_mix =  0.700 |ddv_scf|^2 =  1.251E-12

      iter #  10 total cpu time : 88002.0 secs   av.it.:  13.6
      thresh= 1.118E-07 alpha_mix =  0.700 |ddv_scf|^2 =  4.358E-13

      iter #  11 total cpu time : 88100.0 secs   av.it.:  13.1
      thresh= 6.602E-08 alpha_mix =  0.700 |ddv_scf|^2 =  8.799E-14

      iter #  12 total cpu time : 88199.5 secs   av.it.:  13.3
      thresh= 2.966E-08 alpha_mix =  0.700 |ddv_scf|^2 =  9.308E-14

      iter #  13 total cpu time : 88297.2 secs   av.it.:  12.6
      thresh= 3.051E-08 alpha_mix =  0.700 |ddv_scf|^2 =  1.139E-14

      iter #  14 total cpu time : 88391.5 secs   av.it.:  12.6
      thresh= 1.067E-08 alpha_mix =  0.700 |ddv_scf|^2 =  6.490E-16

     End of self-consistent calculation

     Convergence has been achieved 


     Representation #  2 mode #   2

     Self-consistent Calculation

      iter #   1 total cpu time : 88466.5 secs   av.it.:   8.8
      thresh= 1.000E-02 alpha_mix =  0.700 |ddv_scf|^2 =  4.063E-05

      iter #   2 total cpu time : 88570.7 secs   av.it.:  13.6
      thresh= 6.375E-04 alpha_mix =  0.700 |ddv_scf|^2 =  6.224E-05

      iter #   3 total cpu time : 88663.8 secs   av.it.:  12.3
      thresh= 7.890E-04 alpha_mix =  0.700 |ddv_scf|^2 =  2.088E-06

      iter #   4 total cpu time : 88762.9 secs   av.it.:  12.9
      thresh= 1.445E-04 alpha_mix =  0.700 |ddv_scf|^2 =  2.719E-08

      iter #   5 total cpu time : 88864.9 secs   av.it.:  13.5
      thresh= 1.649E-05 alpha_mix =  0.700 |ddv_scf|^2 =  1.234E-08

      iter #   6 total cpu time : 88960.6 secs   av.it.:  12.4
      thresh= 1.111E-05 alpha_mix =  0.700 |ddv_scf|^2 =  9.172E-10

      iter #   7 total cpu time : 89059.1 secs   av.it.:  13.0
      thresh= 3.029E-06 alpha_mix =  0.700 |ddv_scf|^2 =  6.091E-11

      iter #   8 total cpu time : 89160.6 secs   av.it.:  13.3
      thresh= 7.805E-07 alpha_mix =  0.700 |ddv_scf|^2 =  8.982E-12

      iter #   9 total cpu time : 89261.7 secs   av.it.:  13.6
      thresh= 2.997E-07 alpha_mix =  0.700 |ddv_scf|^2 =  1.341E-12

      iter #  10 total cpu time : 89364.4 secs   av.it.:  13.5
      thresh= 1.158E-07 alpha_mix =  0.700 |ddv_scf|^2 =  1.233E-12

      iter #  11 total cpu time : 89459.2 secs   av.it.:  12.6
      thresh= 1.111E-07 alpha_mix =  0.700 |ddv_scf|^2 =  4.597E-14

      iter #  12 total cpu time : 89555.2 secs   av.it.:  13.0
      thresh= 2.144E-08 alpha_mix =  0.700 |ddv_scf|^2 =  5.849E-15

     End of self-consistent calculation

     Convergence has been achieved 


     Representation #  3 mode #   3

     Self-consistent Calculation

      iter #   1 total cpu time : 89624.9 secs   av.it.:   8.0
      thresh= 1.000E-02 alpha_mix =  0.700 |ddv_scf|^2 =  1.018E-05

      iter #   2 total cpu time : 89727.3 secs   av.it.:  13.6
      thresh= 3.191E-04 alpha_mix =  0.700 |ddv_scf|^2 =  1.254E-05

      iter #   3 total cpu time : 89823.0 secs   av.it.:  12.4
      thresh= 3.541E-04 alpha_mix =  0.700 |ddv_scf|^2 =  6.146E-07

      iter #   4 total cpu time : 89919.8 secs   av.it.:  12.9
      thresh= 7.840E-05 alpha_mix =  0.700 |ddv_scf|^2 =  5.432E-08

      iter #   5 total cpu time : 90016.5 secs   av.it.:  12.8
      thresh= 2.331E-05 alpha_mix =  0.700 |ddv_scf|^2 =  2.881E-09

      iter #   6 total cpu time : 90115.7 secs   av.it.:  13.0
      thresh= 5.368E-06 alpha_mix =  0.700 |ddv_scf|^2 =  2.436E-10

      iter #   7 total cpu time : 90217.9 secs   av.it.:  13.5
      thresh= 1.561E-06 alpha_mix =  0.700 |ddv_scf|^2 =  2.326E-11

      iter #   8 total cpu time : 90320.4 secs   av.it.:  13.6
      thresh= 4.823E-07 alpha_mix =  0.700 |ddv_scf|^2 =  5.174E-12

      iter #   9 total cpu time : 90424.6 secs   av.it.:  13.7
      thresh= 2.275E-07 alpha_mix =  0.700 |ddv_scf|^2 =  1.502E-12

      iter #  10 total cpu time : 90523.8 secs   av.it.:  13.4
      thresh= 1.225E-07 alpha_mix =  0.700 |ddv_scf|^2 =  4.293E-13

      iter #  11 total cpu time : 90625.1 secs   av.it.:  13.4
      thresh= 6.552E-08 alpha_mix =  0.700 |ddv_scf|^2 =  1.691E-13

      iter #  12 total cpu time : 90721.4 secs   av.it.:  12.6
      thresh= 4.112E-08 alpha_mix =  0.700 |ddv_scf|^2 =  3.793E-14

      iter #  13 total cpu time : 90821.5 secs   av.it.:  13.2
      thresh= 1.947E-08 alpha_mix =  0.700 |ddv_scf|^2 =  1.965E-14

      iter #  14 total cpu time : 90915.5 secs   av.it.:  12.3
      thresh= 1.402E-08 alpha_mix =  0.700 |ddv_scf|^2 =  7.057E-16

     End of self-consistent calculation

     Convergence has been achieved 


     Representation #  4 mode #   4

     Self-consistent Calculation

      iter #   1 total cpu time : 90984.2 secs   av.it.:   8.0
      thresh= 1.000E-02 alpha_mix =  0.700 |ddv_scf|^2 =  9.877E-06

      iter #   2 total cpu time : 91086.4 secs   av.it.:  13.6
      thresh= 3.143E-04 alpha_mix =  0.700 |ddv_scf|^2 =  1.277E-05

      iter #   3 total cpu time : 91177.9 secs   av.it.:  12.3
      thresh= 3.574E-04 alpha_mix =  0.700 |ddv_scf|^2 =  6.033E-07

      iter #   4 total cpu time : 91277.5 secs   av.it.:  13.0
      thresh= 7.767E-05 alpha_mix =  0.700 |ddv_scf|^2 =  6.163E-08

      iter #   5 total cpu time : 91372.9 secs   av.it.:  12.8
      thresh= 2.483E-05 alpha_mix =  0.700 |ddv_scf|^2 =  2.864E-09

      iter #   6 total cpu time : 91469.7 secs   av.it.:  13.1
      thresh= 5.351E-06 alpha_mix =  0.700 |ddv_scf|^2 =  2.354E-10

      iter #   7 total cpu time : 91570.9 secs   av.it.:  13.5
      thresh= 1.534E-06 alpha_mix =  0.700 |ddv_scf|^2 =  2.775E-11

      iter #   8 total cpu time : 91672.2 secs   av.it.:  13.5
      thresh= 5.268E-07 alpha_mix =  0.700 |ddv_scf|^2 =  5.250E-12

      iter #   9 total cpu time : 91771.9 secs   av.it.:  13.6
      thresh= 2.291E-07 alpha_mix =  0.700 |ddv_scf|^2 =  1.374E-12

      iter #  10 total cpu time : 91872.4 secs   av.it.:  13.5
      thresh= 1.172E-07 alpha_mix =  0.700 |ddv_scf|^2 =  4.770E-13

      iter #  11 total cpu time : 91972.1 secs   av.it.:  13.3
      thresh= 6.906E-08 alpha_mix =  0.700 |ddv_scf|^2 =  9.920E-14

      iter #  12 total cpu time : 92070.4 secs   av.it.:  13.1
      thresh= 3.150E-08 alpha_mix =  0.700 |ddv_scf|^2 =  7.418E-14

      iter #  13 total cpu time : 92166.3 secs   av.it.:  12.8
      thresh= 2.724E-08 alpha_mix =  0.700 |ddv_scf|^2 =  9.757E-15

     End of self-consistent calculation

     Convergence has been achieved 


     Representation #  5 mode #   5

     Self-consistent Calculation

      iter #   1 total cpu time : 92243.3 secs   av.it.:   9.0
      thresh= 1.000E-02 alpha_mix =  0.700 |ddv_scf|^2 =  3.581E-05

      iter #   2 total cpu time : 92348.3 secs   av.it.:  13.9
      thresh= 5.984E-04 alpha_mix =  0.700 |ddv_scf|^2 =  5.865E-05

      iter #   3 total cpu time : 92443.1 secs   av.it.:  12.5
      thresh= 7.658E-04 alpha_mix =  0.700 |ddv_scf|^2 =  2.496E-06

      iter #   4 total cpu time : 92541.5 secs   av.it.:  13.0
      thresh= 1.580E-04 alpha_mix =  0.700 |ddv_scf|^2 =  4.079E-08

      iter #   5 total cpu time : 92641.4 secs   av.it.:  13.2
      thresh= 2.020E-05 alpha_mix =  0.700 |ddv_scf|^2 =  1.305E-08

      iter #   6 total cpu time : 92740.3 secs   av.it.:  12.8
      thresh= 1.142E-05 alpha_mix =  0.700 |ddv_scf|^2 =  6.134E-10

      iter #   7 total cpu time : 92840.3 secs   av.it.:  13.4
      thresh= 2.477E-06 alpha_mix =  0.700 |ddv_scf|^2 =  5.750E-11

      iter #   8 total cpu time : 92943.5 secs   av.it.:  13.5
      thresh= 7.583E-07 alpha_mix =  0.700 |ddv_scf|^2 =  2.121E-11

      iter #   9 total cpu time : 93044.4 secs   av.it.:  13.3
      thresh= 4.606E-07 alpha_mix =  0.700 |ddv_scf|^2 =  3.818E-12

      iter #  10 total cpu time : 93146.1 secs   av.it.:  13.4
      thresh= 1.954E-07 alpha_mix =  0.700 |ddv_scf|^2 =  8.193E-13

      iter #  11 total cpu time : 93249.1 secs   av.it.:  13.5
      thresh= 9.051E-08 alpha_mix =  0.700 |ddv_scf|^2 =  1.433E-13

      iter #  12 total cpu time : 93346.1 secs   av.it.:  12.9
      thresh= 3.786E-08 alpha_mix =  0.700 |ddv_scf|^2 =  1.203E-14

      iter #  13 total cpu time : 93450.5 secs   av.it.:  13.8
      thresh= 1.097E-08 alpha_mix =  0.700 |ddv_scf|^2 =  9.408E-15

     End of self-consistent calculation

     Convergence has been achieved 


     Representation #  6 mode #   6

     Self-consistent Calculation

      iter #   1 total cpu time : 93519.4 secs   av.it.:   7.6
      thresh= 1.000E-02 alpha_mix =  0.700 |ddv_scf|^2 =  5.154E-06

      iter #   2 total cpu time : 93624.2 secs   av.it.:  13.8
      thresh= 2.270E-04 alpha_mix =  0.700 |ddv_scf|^2 =  3.035E-06

      iter #   3 total cpu time : 93724.0 secs   av.it.:  13.2
      thresh= 1.742E-04 alpha_mix =  0.700 |ddv_scf|^2 =  5.083E-07

      iter #   4 total cpu time : 93821.6 secs   av.it.:  12.6
      thresh= 7.129E-05 alpha_mix =  0.700 |ddv_scf|^2 =  2.815E-08

      iter #   5 total cpu time : 93919.7 secs   av.it.:  13.3
      thresh= 1.678E-05 alpha_mix =  0.700 |ddv_scf|^2 =  8.218E-10

      iter #   6 total cpu time : 94019.0 secs   av.it.:  13.2
      thresh= 2.867E-06 alpha_mix =  0.700 |ddv_scf|^2 =  2.179E-10

      iter #   7 total cpu time : 94116.8 secs   av.it.:  13.2
      thresh= 1.476E-06 alpha_mix =  0.700 |ddv_scf|^2 =  1.943E-11

      iter #   8 total cpu time : 94218.0 secs   av.it.:  13.5
      thresh= 4.408E-07 alpha_mix =  0.700 |ddv_scf|^2 =  4.875E-12

      iter #   9 total cpu time : 94317.0 secs   av.it.:  13.4
      thresh= 2.208E-07 alpha_mix =  0.700 |ddv_scf|^2 =  1.085E-12

      iter #  10 total cpu time : 94414.2 secs   av.it.:  13.5
      thresh= 1.042E-07 alpha_mix =  0.700 |ddv_scf|^2 =  2.047E-13

      iter #  11 total cpu time : 94516.5 secs   av.it.:  13.5
      thresh= 4.524E-08 alpha_mix =  0.700 |ddv_scf|^2 =  5.638E-14

      iter #  12 total cpu time : 94620.9 secs   av.it.:  13.4
      thresh= 2.374E-08 alpha_mix =  0.700 |ddv_scf|^2 =  3.036E-14

      iter #  13 total cpu time : 94720.7 secs   av.it.:  12.9
      thresh= 1.742E-08 alpha_mix =  0.700 |ddv_scf|^2 =  5.233E-15

     End of self-consistent calculation

     Convergence has been achieved 


     Representation #  7 mode #   7

     Self-consistent Calculation

      iter #   1 total cpu time : 94792.5 secs   av.it.:   7.6
      thresh= 1.000E-02 alpha_mix =  0.700 |ddv_scf|^2 =  5.443E-06

      iter #   2 total cpu time : 94901.4 secs   av.it.:  13.7
      thresh= 2.333E-04 alpha_mix =  0.700 |ddv_scf|^2 =  3.350E-06

      iter #   3 total cpu time : 95006.7 secs   av.it.:  12.8
      thresh= 1.830E-04 alpha_mix =  0.700 |ddv_scf|^2 =  3.837E-07

      iter #   4 total cpu time : 95108.5 secs   av.it.:  12.7
      thresh= 6.194E-05 alpha_mix =  0.700 |ddv_scf|^2 =  3.781E-08

      iter #   5 total cpu time : 95209.5 secs   av.it.:  12.8
      thresh= 1.945E-05 alpha_mix =  0.700 |ddv_scf|^2 =  1.307E-09

      iter #   6 total cpu time : 95315.2 secs   av.it.:  13.2
      thresh= 3.615E-06 alpha_mix =  0.700 |ddv_scf|^2 =  2.388E-10

      iter #   7 total cpu time : 95416.6 secs   av.it.:  13.0
      thresh= 1.545E-06 alpha_mix =  0.700 |ddv_scf|^2 =  1.343E-11

      iter #   8 total cpu time : 95521.1 secs   av.it.:  13.6
      thresh= 3.664E-07 alpha_mix =  0.700 |ddv_scf|^2 =  3.323E-12

      iter #   9 total cpu time : 95624.1 secs   av.it.:  13.4
      thresh= 1.823E-07 alpha_mix =  0.700 |ddv_scf|^2 =  1.160E-12

      iter #  10 total cpu time : 95726.6 secs   av.it.:  13.2
      thresh= 1.077E-07 alpha_mix =  0.700 |ddv_scf|^2 =  1.643E-13

      iter #  11 total cpu time : 95831.8 secs   av.it.:  13.4
      thresh= 4.053E-08 alpha_mix =  0.700 |ddv_scf|^2 =  3.676E-14

      iter #  12 total cpu time : 95934.2 secs   av.it.:  13.5
      thresh= 1.917E-08 alpha_mix =  0.700 |ddv_scf|^2 =  2.766E-14

      iter #  13 total cpu time : 96032.6 secs   av.it.:  12.7
      thresh= 1.663E-08 alpha_mix =  0.700 |ddv_scf|^2 =  3.370E-15

     End of self-consistent calculation

     Convergence has been achieved 


     Representation #  8 mode #   8

     Self-consistent Calculation

      iter #   1 total cpu time : 96101.7 secs   av.it.:   7.6
      thresh= 1.000E-02 alpha_mix =  0.700 |ddv_scf|^2 =  6.151E-06

      iter #   2 total cpu time : 96206.3 secs   av.it.:  13.6
      thresh= 2.480E-04 alpha_mix =  0.700 |ddv_scf|^2 =  4.363E-06

      iter #   3 total cpu time : 96301.9 secs   av.it.:  12.9
      thresh= 2.089E-04 alpha_mix =  0.700 |ddv_scf|^2 =  4.868E-07

      iter #   4 total cpu time : 96397.0 secs   av.it.:  12.7
      thresh= 6.977E-05 alpha_mix =  0.700 |ddv_scf|^2 =  3.856E-08

      iter #   5 total cpu time : 96494.2 secs   av.it.:  13.0
      thresh= 1.964E-05 alpha_mix =  0.700 |ddv_scf|^2 =  1.344E-09

      iter #   6 total cpu time : 96592.9 secs   av.it.:  13.3
      thresh= 3.666E-06 alpha_mix =  0.700 |ddv_scf|^2 =  2.411E-10

      iter #   7 total cpu time : 96692.3 secs   av.it.:  13.3
      thresh= 1.553E-06 alpha_mix =  0.700 |ddv_scf|^2 =  1.958E-11

      iter #   8 total cpu time : 96793.3 secs   av.it.:  13.6
      thresh= 4.425E-07 alpha_mix =  0.700 |ddv_scf|^2 =  4.844E-12

      iter #   9 total cpu time : 96894.5 secs   av.it.:  13.5
      thresh= 2.201E-07 alpha_mix =  0.700 |ddv_scf|^2 =  1.300E-12

      iter #  10 total cpu time : 96993.3 secs   av.it.:  13.4
      thresh= 1.140E-07 alpha_mix =  0.700 |ddv_scf|^2 =  2.703E-13

      iter #  11 total cpu time : 97093.2 secs   av.it.:  13.4
      thresh= 5.199E-08 alpha_mix =  0.700 |ddv_scf|^2 =  8.730E-14

      iter #  12 total cpu time : 97193.4 secs   av.it.:  13.3
      thresh= 2.955E-08 alpha_mix =  0.700 |ddv_scf|^2 =  4.145E-14

      iter #  13 total cpu time : 97291.6 secs   av.it.:  13.2
      thresh= 2.036E-08 alpha_mix =  0.700 |ddv_scf|^2 =  1.021E-14

      iter #  14 total cpu time : 97390.4 secs   av.it.:  12.6
      thresh= 1.010E-08 alpha_mix =  0.700 |ddv_scf|^2 =  4.891E-16

     End of self-consistent calculation

     Convergence has been achieved 


     Representation #  9 mode #   9

     Self-consistent Calculation

      iter #   1 total cpu time : 97458.3 secs   av.it.:   8.0
      thresh= 1.000E-02 alpha_mix =  0.700 |ddv_scf|^2 =  9.008E-06

      iter #   2 total cpu time : 97559.9 secs   av.it.:  13.7
      thresh= 3.001E-04 alpha_mix =  0.700 |ddv_scf|^2 =  1.140E-05

      iter #   3 total cpu time : 97655.7 secs   av.it.:  12.5
      thresh= 3.376E-04 alpha_mix =  0.700 |ddv_scf|^2 =  6.069E-07

      iter #   4 total cpu time : 97755.2 secs   av.it.:  12.9
      thresh= 7.790E-05 alpha_mix =  0.700 |ddv_scf|^2 =  5.218E-08

      iter #   5 total cpu time : 97851.1 secs   av.it.:  12.9
      thresh= 2.284E-05 alpha_mix =  0.700 |ddv_scf|^2 =  2.523E-09

      iter #   6 total cpu time : 97950.2 secs   av.it.:  13.1
      thresh= 5.023E-06 alpha_mix =  0.700 |ddv_scf|^2 =  2.269E-10

      iter #   7 total cpu time : 98051.0 secs   av.it.:  13.5
      thresh= 1.506E-06 alpha_mix =  0.700 |ddv_scf|^2 =  2.411E-11

      iter #   8 total cpu time : 98151.7 secs   av.it.:  13.6
      thresh= 4.910E-07 alpha_mix =  0.700 |ddv_scf|^2 =  4.951E-12

      iter #   9 total cpu time : 98252.9 secs   av.it.:  13.6
      thresh= 2.225E-07 alpha_mix =  0.700 |ddv_scf|^2 =  1.221E-12

      iter #  10 total cpu time : 98354.7 secs   av.it.:  13.6
      thresh= 1.105E-07 alpha_mix =  0.700 |ddv_scf|^2 =  4.050E-13

      iter #  11 total cpu time : 98454.2 secs   av.it.:  13.2
      thresh= 6.364E-08 alpha_mix =  0.700 |ddv_scf|^2 =  7.940E-14

      iter #  12 total cpu time : 98552.1 secs   av.it.:  13.4
      thresh= 2.818E-08 alpha_mix =  0.700 |ddv_scf|^2 =  7.969E-14

      iter #  13 total cpu time : 98648.6 secs   av.it.:  12.8
      thresh= 2.823E-08 alpha_mix =  0.700 |ddv_scf|^2 =  1.466E-14

      iter #  14 total cpu time : 98743.7 secs   av.it.:  12.4
      thresh= 1.211E-08 alpha_mix =  0.700 |ddv_scf|^2 =  5.161E-16

     End of self-consistent calculation

     Convergence has been achieved 


     Representation # 10 mode #  10

     Self-consistent Calculation

      iter #   1 total cpu time : 98814.1 secs   av.it.:   8.0
      thresh= 1.000E-02 alpha_mix =  0.700 |ddv_scf|^2 =  9.761E-06
