
     Program PHONON v.6.2.2 starts on  5May2018 at  1: 3:42 

     This program is part of the open-source Quantum ESPRESSO suite
     for quantum simulation of materials; please cite
         "P. Giannozzi et al., J. Phys.:Condens. Matter 21 395502 (2009);
         "P. Giannozzi et al., J. Phys.:Condens. Matter 29 465901 (2017);
          URL http://www.quantum-espresso.org", 
     in publications or presentations arising from this work. More details at
     http://www.quantum-espresso.org/quote

     Parallel version (MPI), running on     8 processors

     MPI processes distributed on     1 nodes
     R & G space division:  proc/nbgrp/npool/nimage =       8

     Reading data from directory:
     ./444.save/

     IMPORTANT: XC functional enforced from input :
     Exchange-correlation      = PBE ( 1  4  3  4 0 0)
     Any further DFT definition will be discarded
     Please, verify this is what you really want

 
     Parallelization info
     --------------------
     sticks:   dense  smooth     PW     G-vecs:    dense   smooth      PW
     Min         250     250     73                 5618     5618     894
     Max         251     251     75                 5619     5619     895
     Sum        2001    2001    593                44945    44945    7155
 

     Check: negative/imaginary core charge=   -0.000002    0.000000


     Dynamical matrices for ( 4, 4, 4)  uniform grid of q-points
     (  21 q-points):
       N         xq(1)         xq(2)         xq(3) 
       1   0.000000000   0.000000000   0.000000000
       2   0.000000000   0.000000000   0.372246638
       3   0.000000000   0.000000000  -0.744493277
       4   0.000000000   0.250000000   0.000000000
       5   0.000000000   0.250000000   0.372246638
       6   0.000000000   0.250000000  -0.744493277
       7   0.000000000  -0.500000000   0.000000000
       8   0.000000000  -0.500000000   0.372246638
       9   0.000000000  -0.500000000  -0.744493277
      10   0.250000000   0.250000000   0.000000000
      11   0.250000000   0.250000000   0.372246638
      12   0.250000000   0.250000000  -0.744493277
      13   0.250000000  -0.500000000   0.000000000
      14   0.250000000  -0.500000000   0.372246638
      15   0.250000000  -0.500000000  -0.744493277
      16   0.250000000  -0.250000000   0.000000000
      17   0.250000000  -0.250000000   0.372246638
      18   0.250000000  -0.250000000  -0.744493277
      19  -0.500000000  -0.500000000   0.000000000
      20  -0.500000000  -0.500000000   0.372246638
      21  -0.500000000  -0.500000000  -0.744493277

     Calculation of q =    0.0000000   0.0000000   0.0000000

     Phonon dispersions for SnO2                                                

     bravais-lattice index     =            6
     lattice parameter (alat)  =       9.1370  a.u.
     unit-cell volume          =     512.3005 (a.u.)^3
     number of atoms/cell      =            6
     number of atomic types    =            2
     kinetic-energy cut-off    =      75.0000  Ry
     charge density cut-off    =     300.0000  Ry
     convergence threshold     =      1.0E-14
     beta                      =       0.7000
     number of iterations used =            4
     Exchange-correlation      = PBE ( 1  4  3  4 0 0)


     celldm(1)=    9.13703  celldm(2)=    1.00000  celldm(3)=    0.67160
     celldm(4)=    0.00000  celldm(5)=    0.00000  celldm(6)=    0.00000

     crystal axes: (cart. coord. in units of alat)
               a(1) = (  1.0000  0.0000  0.0000 )  
               a(2) = (  0.0000  1.0000  0.0000 )  
               a(3) = (  0.0000  0.0000  0.6716 )  

     reciprocal axes: (cart. coord. in units 2 pi/alat)
               b(1) = (  1.0000  0.0000  0.0000 )  
               b(2) = (  0.0000  1.0000  0.0000 )  
               b(3) = (  0.0000  0.0000  1.4890 )  


     Atoms inside the unit cell: 

     Cartesian axes

     site n.  atom      mass           positions (alat units)
        1     Sn 118.7100   tau(    1) = (   -0.00033   -0.00033    0.00000  )
        2     Sn 118.7100   tau(    2) = (    0.49967    0.49967    0.33580  )
        3     O   15.9990   tau(    3) = (    0.80637    0.19296    0.33580  )
        4     O   15.9990   tau(    4) = (    0.19296    0.80637    0.33580  )
        5     O   15.9990   tau(    5) = (    0.30637    0.30637    0.00000  )
        6     O   15.9990   tau(    6) = (    0.69296    0.69296    0.00000  )

     Computing dynamical matrix for 
                    q = (   0.0000000   0.0000000   0.0000000 )
 
      5 Sym.Ops. (with q -> -q+G )


     G cutoff =  634.4127  (   5619 G-vectors)     FFT grid: ( 54, 54, 36)
     number of k points=    21

     PseudoPot. # 1 for Sn read from file:
     ../../../Pseudo_potentials/Sn_PBE.upf
     MD5 check sum: 78e6386ae56e929f0568ae8bf606a80c
     Pseudo is Norm-conserving + core correction, Zval = 14.0
     Generated using ONCVPSP code by D. R. Hamann
     Using radial grid of 1628 points,  6 beta functions with: 
                l(1) =   0
                l(2) =   0
                l(3) =   1
                l(4) =   1
                l(5) =   2
                l(6) =   2

     PseudoPot. # 2 for O  read from file:
     ../../../Pseudo_potentials/O_PBE.upf
     MD5 check sum: 3e3f909f7470e8921608ab6b1f57bbae
     Pseudo is Norm-conserving + core correction, Zval =  6.0
     Generated using ONCVPSP code by D. R. Hamann
     Using radial grid of  936 points,  5 beta functions with: 
                l(1) =   0
                l(2) =   0
                l(3) =   1
                l(4) =   1
                l(5) =   2

     Mode symmetry, C_2v (mm2)  point group:


     Electric field:
     Dielectric constant
     Born effective charges in two ways 


     Atomic displacements:
     There are  18 irreducible representations

     Representation     1      1 modes -A_1  D_1  S_1  To be done

     Representation     2      1 modes -A_1  D_1  S_1  To be done

     Representation     3      1 modes -A_1  D_1  S_1  To be done

     Representation     4      1 modes -A_1  D_1  S_1  To be done

     Representation     5      1 modes -A_1  D_1  S_1  To be done

     Representation     6      1 modes -A_1  D_1  S_1  To be done

     Representation     7      1 modes -A_2  D_2  S_2  To be done

     Representation     8      1 modes -B_1  D_3  S_3  To be done

     Representation     9      1 modes -B_1  D_3  S_3  To be done

     Representation    10      1 modes -B_1  D_3  S_3  To be done

     Representation    11      1 modes -B_1  D_3  S_3  To be done

     Representation    12      1 modes -B_1  D_3  S_3  To be done

     Representation    13      1 modes -B_1  D_3  S_3  To be done

     Representation    14      1 modes -B_2  D_4  S_4  To be done

     Representation    15      1 modes -B_2  D_4  S_4  To be done

     Representation    16      1 modes -B_2  D_4  S_4  To be done

     Representation    17      1 modes -B_2  D_4  S_4  To be done

     Representation    18      1 modes -B_2  D_4  S_4  To be done



     Alpha used in Ewald sum =   2.7000
     PHONON       :     1.91s CPU         3.74s WALL


     Electric Fields Calculation

      iter #   1 total cpu time :    56.9 secs   av.it.:   7.2
      thresh= 1.000E-02 alpha_mix =  0.700 |ddv_scf|^2 =  4.343E-08

      iter #   2 total cpu time :    81.6 secs   av.it.:  13.7
      thresh= 2.084E-05 alpha_mix =  0.700 |ddv_scf|^2 =  6.968E-08

      iter #   3 total cpu time :   100.9 secs   av.it.:  12.0
      thresh= 2.640E-05 alpha_mix =  0.700 |ddv_scf|^2 =  3.313E-09

      iter #   4 total cpu time :   123.0 secs   av.it.:  13.1
      thresh= 5.756E-06 alpha_mix =  0.700 |ddv_scf|^2 =  1.558E-10

      iter #   5 total cpu time :   142.9 secs   av.it.:  13.4
      thresh= 1.248E-06 alpha_mix =  0.700 |ddv_scf|^2 =  1.564E-11

      iter #   6 total cpu time :   162.6 secs   av.it.:  12.7
      thresh= 3.955E-07 alpha_mix =  0.700 |ddv_scf|^2 =  1.125E-13

      iter #   7 total cpu time :   184.7 secs   av.it.:  14.4
      thresh= 3.354E-08 alpha_mix =  0.700 |ddv_scf|^2 =  5.001E-14

      iter #   8 total cpu time :   204.6 secs   av.it.:  13.4
      thresh= 2.236E-08 alpha_mix =  0.700 |ddv_scf|^2 =  4.226E-16

     End of electric fields calculation

          Dielectric constant in cartesian axis 

          (       5.792031173       0.000000002       0.000000000 )
          (       0.000000002       5.792031173       0.000000000 )
          (      -0.000000000      -0.000000000       5.429848679 )

          Effective charges (d Force / dE) in cartesian axis

           atom      1   Sn 
      Ex  (        4.16234        0.57555        0.00000 )
      Ey  (        0.57555        4.16234        0.00000 )
      Ez  (        0.00000       -0.00000        4.58746 )
           atom      2   Sn 
      Ex  (        4.16234       -0.57555        0.00000 )
      Ey  (       -0.57555        4.16234        0.00000 )
      Ez  (        0.00000        0.00000        4.58746 )
           atom      3   O  
      Ex  (       -2.10094        0.85825        0.00000 )
      Ey  (        0.85824       -2.10090        0.00000 )
      Ez  (        0.00000        0.00000       -2.35608 )
           atom      4   O  
      Ex  (       -2.10090        0.85824        0.00000 )
      Ey  (        0.85825       -2.10094        0.00000 )
      Ez  (        0.00000        0.00000       -2.35608 )
           atom      5   O  
      Ex  (       -2.10091       -0.85823        0.00000 )
      Ey  (       -0.85823       -2.10091        0.00000 )
      Ez  (       -0.00000        0.00000       -2.35608 )
           atom      6   O  
      Ex  (       -2.10093       -0.85825        0.00000 )
      Ey  (       -0.85825       -2.10093        0.00000 )
      Ez  (       -0.00000       -0.00000       -2.35608 )


     Representation #  1 mode #   1

     Self-consistent Calculation

      iter #   1 total cpu time :   219.0 secs   av.it.:   6.6
      thresh= 1.000E-02 alpha_mix =  0.700 |ddv_scf|^2 =  2.245E-06

      iter #   2 total cpu time :   226.8 secs   av.it.:  12.4
      thresh= 1.498E-04 alpha_mix =  0.700 |ddv_scf|^2 =  5.848E-07

      iter #   3 total cpu time :   233.2 secs   av.it.:  12.4
      thresh= 7.647E-05 alpha_mix =  0.700 |ddv_scf|^2 =  1.946E-07

      iter #   4 total cpu time :   241.0 secs   av.it.:  11.5
      thresh= 4.412E-05 alpha_mix =  0.700 |ddv_scf|^2 =  8.058E-09

      iter #   5 total cpu time :   249.8 secs   av.it.:  12.3
      thresh= 8.977E-06 alpha_mix =  0.700 |ddv_scf|^2 =  6.022E-11

      iter #   6 total cpu time :   257.6 secs   av.it.:  13.0
      thresh= 7.760E-07 alpha_mix =  0.700 |ddv_scf|^2 =  2.801E-11

      iter #   7 total cpu time :   265.4 secs   av.it.:  12.3
      thresh= 5.293E-07 alpha_mix =  0.700 |ddv_scf|^2 =  1.292E-11

      iter #   8 total cpu time :   272.0 secs   av.it.:  11.9
      thresh= 3.595E-07 alpha_mix =  0.700 |ddv_scf|^2 =  5.621E-13

      iter #   9 total cpu time :   279.4 secs   av.it.:  12.4
      thresh= 7.498E-08 alpha_mix =  0.700 |ddv_scf|^2 =  1.979E-14

      iter #  10 total cpu time :   286.8 secs   av.it.:  13.0
      thresh= 1.407E-08 alpha_mix =  0.700 |ddv_scf|^2 =  9.712E-15

     End of self-consistent calculation

     Convergence has been achieved 


     Representation #  2 mode #   2

     Self-consistent Calculation

      iter #   1 total cpu time :   292.2 secs   av.it.:   7.0
      thresh= 1.000E-02 alpha_mix =  0.700 |ddv_scf|^2 =  7.635E-06

      iter #   2 total cpu time :   298.5 secs   av.it.:  12.0
      thresh= 2.763E-04 alpha_mix =  0.700 |ddv_scf|^2 =  4.596E-06

      iter #   3 total cpu time :   304.8 secs   av.it.:  11.2
      thresh= 2.144E-04 alpha_mix =  0.700 |ddv_scf|^2 =  1.157E-07

      iter #   4 total cpu time :   313.1 secs   av.it.:  11.7
      thresh= 3.402E-05 alpha_mix =  0.700 |ddv_scf|^2 =  4.388E-08

      iter #   5 total cpu time :   319.1 secs   av.it.:  11.3
      thresh= 2.095E-05 alpha_mix =  0.700 |ddv_scf|^2 =  6.737E-11

      iter #   6 total cpu time :   326.3 secs   av.it.:  12.7
      thresh= 8.208E-07 alpha_mix =  0.700 |ddv_scf|^2 =  1.013E-11

      iter #   7 total cpu time :   333.5 secs   av.it.:  12.7
      thresh= 3.183E-07 alpha_mix =  0.700 |ddv_scf|^2 =  1.225E-11

      iter #   8 total cpu time :   340.6 secs   av.it.:  11.7
      thresh= 3.500E-07 alpha_mix =  0.700 |ddv_scf|^2 =  1.542E-13

      iter #   9 total cpu time :   347.6 secs   av.it.:  13.0
      thresh= 3.926E-08 alpha_mix =  0.700 |ddv_scf|^2 =  2.758E-14

      iter #  10 total cpu time :   355.3 secs   av.it.:  12.5
      thresh= 1.661E-08 alpha_mix =  0.700 |ddv_scf|^2 =  1.589E-15

     End of self-consistent calculation

     Convergence has been achieved 


     Representation #  3 mode #   3

     Self-consistent Calculation

      iter #   1 total cpu time :   363.4 secs   av.it.:   8.0
      thresh= 1.000E-02 alpha_mix =  0.700 |ddv_scf|^2 =  1.953E-05

      iter #   2 total cpu time :   370.8 secs   av.it.:  12.6
      thresh= 4.419E-04 alpha_mix =  0.700 |ddv_scf|^2 =  1.892E-05

      iter #   3 total cpu time :   376.9 secs   av.it.:  11.6
      thresh= 4.349E-04 alpha_mix =  0.700 |ddv_scf|^2 =  1.388E-06

      iter #   4 total cpu time :   384.9 secs   av.it.:  11.5
      thresh= 1.178E-04 alpha_mix =  0.700 |ddv_scf|^2 =  1.922E-09

      iter #   5 total cpu time :   391.3 secs   av.it.:  12.2
      thresh= 4.384E-06 alpha_mix =  0.700 |ddv_scf|^2 =  4.299E-11

      iter #   6 total cpu time :   399.3 secs   av.it.:  12.3
      thresh= 6.557E-07 alpha_mix =  0.700 |ddv_scf|^2 =  1.388E-11

      iter #   7 total cpu time :   406.7 secs   av.it.:  11.9
      thresh= 3.726E-07 alpha_mix =  0.700 |ddv_scf|^2 =  2.562E-13

      iter #   8 total cpu time :   413.2 secs   av.it.:  12.7
      thresh= 5.062E-08 alpha_mix =  0.700 |ddv_scf|^2 =  8.111E-15

     End of self-consistent calculation

     Convergence has been achieved 


     Representation #  4 mode #   4

     Self-consistent Calculation

      iter #   1 total cpu time :   419.0 secs   av.it.:   7.2
      thresh= 1.000E-02 alpha_mix =  0.700 |ddv_scf|^2 =  4.984E-06

      iter #   2 total cpu time :   427.6 secs   av.it.:  12.8
      thresh= 2.232E-04 alpha_mix =  0.700 |ddv_scf|^2 =  2.768E-06

      iter #   3 total cpu time :   435.9 secs   av.it.:  12.0
      thresh= 1.664E-04 alpha_mix =  0.700 |ddv_scf|^2 =  1.342E-07

      iter #   4 total cpu time :   442.7 secs   av.it.:  12.1
      thresh= 3.663E-05 alpha_mix =  0.700 |ddv_scf|^2 =  3.121E-08

      iter #   5 total cpu time :   449.9 secs   av.it.:  11.9
      thresh= 1.767E-05 alpha_mix =  0.700 |ddv_scf|^2 =  3.141E-10

      iter #   6 total cpu time :   457.6 secs   av.it.:  12.9
      thresh= 1.772E-06 alpha_mix =  0.700 |ddv_scf|^2 =  2.256E-10

      iter #   7 total cpu time :   464.5 secs   av.it.:  12.0
      thresh= 1.502E-06 alpha_mix =  0.700 |ddv_scf|^2 =  6.706E-12

      iter #   8 total cpu time :   472.4 secs   av.it.:  13.0
      thresh= 2.590E-07 alpha_mix =  0.700 |ddv_scf|^2 =  8.624E-13

      iter #   9 total cpu time :   479.1 secs   av.it.:  13.1
      thresh= 9.287E-08 alpha_mix =  0.700 |ddv_scf|^2 =  1.148E-13

      iter #  10 total cpu time :   487.2 secs   av.it.:  12.4
      thresh= 3.388E-08 alpha_mix =  0.700 |ddv_scf|^2 =  5.695E-15

     End of self-consistent calculation

     Convergence has been achieved 


     Representation #  5 mode #   5

     Self-consistent Calculation

      iter #   1 total cpu time :   493.3 secs   av.it.:   7.8
      thresh= 1.000E-02 alpha_mix =  0.700 |ddv_scf|^2 =  1.666E-05

      iter #   2 total cpu time :   501.1 secs   av.it.:  12.3
      thresh= 4.082E-04 alpha_mix =  0.700 |ddv_scf|^2 =  1.423E-05

      iter #   3 total cpu time :   507.9 secs   av.it.:  11.6
      thresh= 3.772E-04 alpha_mix =  0.700 |ddv_scf|^2 =  1.439E-06

      iter #   4 total cpu time :   514.5 secs   av.it.:  11.6
      thresh= 1.200E-04 alpha_mix =  0.700 |ddv_scf|^2 =  1.944E-09

      iter #   5 total cpu time :   521.6 secs   av.it.:  12.4
      thresh= 4.409E-06 alpha_mix =  0.700 |ddv_scf|^2 =  1.552E-10

      iter #   6 total cpu time :   529.1 secs   av.it.:  11.7
      thresh= 1.246E-06 alpha_mix =  0.700 |ddv_scf|^2 =  5.978E-11

      iter #   7 total cpu time :   535.6 secs   av.it.:  11.4
      thresh= 7.732E-07 alpha_mix =  0.700 |ddv_scf|^2 =  1.082E-12

      iter #   8 total cpu time :   542.0 secs   av.it.:  11.8
      thresh= 1.040E-07 alpha_mix =  0.700 |ddv_scf|^2 =  1.529E-14

      iter #   9 total cpu time :   549.2 secs   av.it.:  12.6
      thresh= 1.236E-08 alpha_mix =  0.700 |ddv_scf|^2 =  2.559E-15

     End of self-consistent calculation

     Convergence has been achieved 


     Representation #  6 mode #   6

     Self-consistent Calculation

      iter #   1 total cpu time :   556.0 secs   av.it.:   7.2
      thresh= 1.000E-02 alpha_mix =  0.700 |ddv_scf|^2 =  4.984E-06

      iter #   2 total cpu time :   562.8 secs   av.it.:  12.8
      thresh= 2.232E-04 alpha_mix =  0.700 |ddv_scf|^2 =  2.768E-06

      iter #   3 total cpu time :   570.3 secs   av.it.:  12.0
      thresh= 1.664E-04 alpha_mix =  0.700 |ddv_scf|^2 =  1.342E-07

      iter #   4 total cpu time :   577.4 secs   av.it.:  12.1
      thresh= 3.664E-05 alpha_mix =  0.700 |ddv_scf|^2 =  3.121E-08

      iter #   5 total cpu time :   585.1 secs   av.it.:  11.9
      thresh= 1.767E-05 alpha_mix =  0.700 |ddv_scf|^2 =  3.141E-10

      iter #   6 total cpu time :   591.7 secs   av.it.:  12.9
      thresh= 1.772E-06 alpha_mix =  0.700 |ddv_scf|^2 =  2.256E-10

      iter #   7 total cpu time :   598.5 secs   av.it.:  12.0
      thresh= 1.502E-06 alpha_mix =  0.700 |ddv_scf|^2 =  6.706E-12

      iter #   8 total cpu time :   605.1 secs   av.it.:  13.0
      thresh= 2.590E-07 alpha_mix =  0.700 |ddv_scf|^2 =  8.623E-13

      iter #   9 total cpu time :   613.6 secs   av.it.:  13.1
      thresh= 9.286E-08 alpha_mix =  0.700 |ddv_scf|^2 =  1.148E-13

      iter #  10 total cpu time :   621.1 secs   av.it.:  12.4
      thresh= 3.388E-08 alpha_mix =  0.700 |ddv_scf|^2 =  5.694E-15

     End of self-consistent calculation

     Convergence has been achieved 


     Representation #  7 mode #   7

     Self-consistent Calculation

      iter #   1 total cpu time :   625.9 secs   av.it.:   6.3
      thresh= 1.000E-02 alpha_mix =  0.700 |ddv_scf|^2 =  1.143E-06

      iter #   2 total cpu time :   633.0 secs   av.it.:  11.6
      thresh= 1.069E-04 alpha_mix =  0.700 |ddv_scf|^2 =  1.424E-08

      iter #   3 total cpu time :   641.1 secs   av.it.:  11.6
      thresh= 1.193E-05 alpha_mix =  0.700 |ddv_scf|^2 =  1.626E-10

      iter #   4 total cpu time :   648.3 secs   av.it.:  11.6
      thresh= 1.275E-06 alpha_mix =  0.700 |ddv_scf|^2 =  1.385E-12

      iter #   5 total cpu time :   654.3 secs   av.it.:  11.9
      thresh= 1.177E-07 alpha_mix =  0.700 |ddv_scf|^2 =  7.909E-15

     End of self-consistent calculation

     Convergence has been achieved 


     Representation #  8 mode #   8

     Self-consistent Calculation

      iter #   1 total cpu time :   659.1 secs   av.it.:   6.7
      thresh= 1.000E-02 alpha_mix =  0.700 |ddv_scf|^2 =  3.977E-06

      iter #   2 total cpu time :   667.0 secs   av.it.:  12.1
      thresh= 1.994E-04 alpha_mix =  0.700 |ddv_scf|^2 =  5.037E-07

      iter #   3 total cpu time :   674.7 secs   av.it.:  12.1
      thresh= 7.097E-05 alpha_mix =  0.700 |ddv_scf|^2 =  3.694E-08

      iter #   4 total cpu time :   681.1 secs   av.it.:  11.8
      thresh= 1.922E-05 alpha_mix =  0.700 |ddv_scf|^2 =  4.565E-09

      iter #   5 total cpu time :   687.3 secs   av.it.:  11.9
      thresh= 6.757E-06 alpha_mix =  0.700 |ddv_scf|^2 =  8.257E-11

      iter #   6 total cpu time :   694.9 secs   av.it.:  12.9
      thresh= 9.087E-07 alpha_mix =  0.700 |ddv_scf|^2 =  7.165E-12

      iter #   7 total cpu time :   702.5 secs   av.it.:  12.6
      thresh= 2.677E-07 alpha_mix =  0.700 |ddv_scf|^2 =  1.701E-13

      iter #   8 total cpu time :   708.8 secs   av.it.:  12.2
      thresh= 4.125E-08 alpha_mix =  0.700 |ddv_scf|^2 =  6.263E-15

     End of self-consistent calculation

     Convergence has been achieved 


     Representation #  9 mode #   9

     Self-consistent Calculation

      iter #   1 total cpu time :   713.5 secs   av.it.:   8.0
      thresh= 1.000E-02 alpha_mix =  0.700 |ddv_scf|^2 =  1.953E-05

      iter #   2 total cpu time :   720.7 secs   av.it.:  12.5
      thresh= 4.419E-04 alpha_mix =  0.700 |ddv_scf|^2 =  1.892E-05

      iter #   3 total cpu time :   726.9 secs   av.it.:  11.6
      thresh= 4.349E-04 alpha_mix =  0.700 |ddv_scf|^2 =  1.388E-06

      iter #   4 total cpu time :   732.9 secs   av.it.:  11.6
      thresh= 1.178E-04 alpha_mix =  0.700 |ddv_scf|^2 =  1.922E-09

      iter #   5 total cpu time :   739.1 secs   av.it.:  12.2
      thresh= 4.384E-06 alpha_mix =  0.700 |ddv_scf|^2 =  4.299E-11

      iter #   6 total cpu time :   745.7 secs   av.it.:  12.3
      thresh= 6.557E-07 alpha_mix =  0.700 |ddv_scf|^2 =  1.388E-11

      iter #   7 total cpu time :   753.1 secs   av.it.:  11.9
      thresh= 3.726E-07 alpha_mix =  0.700 |ddv_scf|^2 =  2.560E-13

      iter #   8 total cpu time :   759.7 secs   av.it.:  12.5
      thresh= 5.060E-08 alpha_mix =  0.700 |ddv_scf|^2 =  7.250E-15

     End of self-consistent calculation

     Convergence has been achieved 


     Representation # 10 mode #  10

     Self-consistent Calculation

      iter #   1 total cpu time :   764.3 secs   av.it.:   6.6
      thresh= 1.000E-02 alpha_mix =  0.700 |ddv_scf|^2 =  3.173E-06

      iter #   2 total cpu time :   770.7 secs   av.it.:  12.5
      thresh= 1.781E-04 alpha_mix =  0.700 |ddv_scf|^2 =  5.211E-07

      iter #   3 total cpu time :   777.7 secs   av.it.:  12.5
      thresh= 7.219E-05 alpha_mix =  0.700 |ddv_scf|^2 =  1.287E-07

      iter #   4 total cpu time :   785.0 secs   av.it.:  11.5
      thresh= 3.588E-05 alpha_mix =  0.700 |ddv_scf|^2 =  4.718E-09

      iter #   5 total cpu time :   793.4 secs   av.it.:  12.3
      thresh= 6.869E-06 alpha_mix =  0.700 |ddv_scf|^2 =  1.203E-10

      iter #   6 total cpu time :   801.6 secs   av.it.:  12.7
      thresh= 1.097E-06 alpha_mix =  0.700 |ddv_scf|^2 =  8.167E-12

      iter #   7 total cpu time :   809.3 secs   av.it.:  12.1
      thresh= 2.858E-07 alpha_mix =  0.700 |ddv_scf|^2 =  3.295E-13

      iter #   8 total cpu time :   815.6 secs   av.it.:  12.3
      thresh= 5.741E-08 alpha_mix =  0.700 |ddv_scf|^2 =  5.250E-15

     End of self-consistent calculation

     Convergence has been achieved 


     Representation # 11 mode #  11

     Self-consistent Calculation

      iter #   1 total cpu time :   821.2 secs   av.it.:   7.1
      thresh= 1.000E-02 alpha_mix =  0.700 |ddv_scf|^2 =  2.459E-06

      iter #   2 total cpu time :   827.8 secs   av.it.:  13.0
      thresh= 1.568E-04 alpha_mix =  0.700 |ddv_scf|^2 =  9.012E-07

      iter #   3 total cpu time :   835.7 secs   av.it.:  12.3
      thresh= 9.493E-05 alpha_mix =  0.700 |ddv_scf|^2 =  2.152E-07

      iter #   4 total cpu time :   842.9 secs   av.it.:  11.4
      thresh= 4.639E-05 alpha_mix =  0.700 |ddv_scf|^2 =  5.560E-09

      iter #   5 total cpu time :   849.3 secs   av.it.:  12.3
      thresh= 7.456E-06 alpha_mix =  0.700 |ddv_scf|^2 =  5.080E-11

      iter #   6 total cpu time :   856.1 secs   av.it.:  13.0
      thresh= 7.128E-07 alpha_mix =  0.700 |ddv_scf|^2 =  7.415E-12

      iter #   7 total cpu time :   862.9 secs   av.it.:  12.7
      thresh= 2.723E-07 alpha_mix =  0.700 |ddv_scf|^2 =  4.948E-13

      iter #   8 total cpu time :   869.3 secs   av.it.:  12.4
      thresh= 7.034E-08 alpha_mix =  0.700 |ddv_scf|^2 =  1.103E-14

      iter #   9 total cpu time :   875.9 secs   av.it.:  13.0
      thresh= 1.050E-08 alpha_mix =  0.700 |ddv_scf|^2 =  1.713E-15

     End of self-consistent calculation

     Convergence has been achieved 


     Representation # 12 mode #  12

     Self-consistent Calculation

      iter #   1 total cpu time :   881.0 secs   av.it.:   6.6
      thresh= 1.000E-02 alpha_mix =  0.700 |ddv_scf|^2 =  3.173E-06

      iter #   2 total cpu time :   887.4 secs   av.it.:  12.5
      thresh= 1.781E-04 alpha_mix =  0.700 |ddv_scf|^2 =  5.212E-07

      iter #   3 total cpu time :   893.8 secs   av.it.:  12.5
      thresh= 7.219E-05 alpha_mix =  0.700 |ddv_scf|^2 =  1.287E-07

      iter #   4 total cpu time :   900.5 secs   av.it.:  11.5
      thresh= 3.588E-05 alpha_mix =  0.700 |ddv_scf|^2 =  4.719E-09

      iter #   5 total cpu time :   907.1 secs   av.it.:  12.3
      thresh= 6.869E-06 alpha_mix =  0.700 |ddv_scf|^2 =  1.203E-10

      iter #   6 total cpu time :   913.7 secs   av.it.:  12.7
      thresh= 1.097E-06 alpha_mix =  0.700 |ddv_scf|^2 =  8.167E-12

      iter #   7 total cpu time :   920.0 secs   av.it.:  12.1
      thresh= 2.858E-07 alpha_mix =  0.700 |ddv_scf|^2 =  3.295E-13

      iter #   8 total cpu time :   926.2 secs   av.it.:  12.3
      thresh= 5.741E-08 alpha_mix =  0.700 |ddv_scf|^2 =  5.250E-15

     End of self-consistent calculation

     Convergence has been achieved 


     Representation # 13 mode #  13

     Self-consistent Calculation

      iter #   1 total cpu time :   931.3 secs   av.it.:   7.8
      thresh= 1.000E-02 alpha_mix =  0.700 |ddv_scf|^2 =  1.666E-05

      iter #   2 total cpu time :   939.1 secs   av.it.:  12.2
      thresh= 4.082E-04 alpha_mix =  0.700 |ddv_scf|^2 =  1.423E-05

      iter #   3 total cpu time :   945.5 secs   av.it.:  11.6
      thresh= 3.772E-04 alpha_mix =  0.700 |ddv_scf|^2 =  1.439E-06

      iter #   4 total cpu time :   952.9 secs   av.it.:  11.5
      thresh= 1.200E-04 alpha_mix =  0.700 |ddv_scf|^2 =  1.944E-09

      iter #   5 total cpu time :   959.4 secs   av.it.:  12.3
      thresh= 4.409E-06 alpha_mix =  0.700 |ddv_scf|^2 =  1.552E-10

      iter #   6 total cpu time :   965.8 secs   av.it.:  11.7
      thresh= 1.246E-06 alpha_mix =  0.700 |ddv_scf|^2 =  5.978E-11

      iter #   7 total cpu time :   971.9 secs   av.it.:  11.4
      thresh= 7.732E-07 alpha_mix =  0.700 |ddv_scf|^2 =  1.082E-12

      iter #   8 total cpu time :   978.0 secs   av.it.:  11.6
      thresh= 1.040E-07 alpha_mix =  0.700 |ddv_scf|^2 =  1.506E-14

      iter #   9 total cpu time :   984.7 secs   av.it.:  12.1
      thresh= 1.227E-08 alpha_mix =  0.700 |ddv_scf|^2 =  2.482E-16

     End of self-consistent calculation

     Convergence has been achieved 


     Representation # 14 mode #  14

     Self-consistent Calculation

      iter #   1 total cpu time :   989.1 secs   av.it.:   7.3
      thresh= 1.000E-02 alpha_mix =  0.700 |ddv_scf|^2 =  5.737E-06

      iter #   2 total cpu time :   995.7 secs   av.it.:  12.3
      thresh= 2.395E-04 alpha_mix =  0.700 |ddv_scf|^2 =  1.078E-06

      iter #   3 total cpu time :  1003.1 secs   av.it.:  12.0
      thresh= 1.038E-04 alpha_mix =  0.700 |ddv_scf|^2 =  3.291E-09

      iter #   4 total cpu time :  1010.8 secs   av.it.:  12.0
      thresh= 5.736E-06 alpha_mix =  0.700 |ddv_scf|^2 =  2.491E-10

      iter #   5 total cpu time :  1017.4 secs   av.it.:  12.1
      thresh= 1.578E-06 alpha_mix =  0.700 |ddv_scf|^2 =  5.148E-12

      iter #   6 total cpu time :  1024.5 secs   av.it.:  12.0
      thresh= 2.269E-07 alpha_mix =  0.700 |ddv_scf|^2 =  9.751E-14

      iter #   7 total cpu time :  1032.0 secs   av.it.:  12.1
      thresh= 3.123E-08 alpha_mix =  0.700 |ddv_scf|^2 =  3.760E-15

     End of self-consistent calculation

     Convergence has been achieved 


     Representation # 15 mode #  15

     Self-consistent Calculation

      iter #   1 total cpu time :  1036.8 secs   av.it.:   6.7
      thresh= 1.000E-02 alpha_mix =  0.700 |ddv_scf|^2 =  1.656E-06

      iter #   2 total cpu time :  1043.2 secs   av.it.:  12.3
      thresh= 1.287E-04 alpha_mix =  0.700 |ddv_scf|^2 =  1.438E-07

      iter #   3 total cpu time :  1050.9 secs   av.it.:  12.2
      thresh= 3.792E-05 alpha_mix =  0.700 |ddv_scf|^2 =  3.591E-09

      iter #   4 total cpu time :  1057.0 secs   av.it.:  12.0
      thresh= 5.993E-06 alpha_mix =  0.700 |ddv_scf|^2 =  4.066E-11

      iter #   5 total cpu time :  1063.3 secs   av.it.:  12.3
      thresh= 6.376E-07 alpha_mix =  0.700 |ddv_scf|^2 =  2.272E-12

      iter #   6 total cpu time :  1069.9 secs   av.it.:  12.0
      thresh= 1.507E-07 alpha_mix =  0.700 |ddv_scf|^2 =  7.210E-14

      iter #   7 total cpu time :  1075.8 secs   av.it.:  11.7
      thresh= 2.685E-08 alpha_mix =  0.700 |ddv_scf|^2 =  5.832E-15

     End of self-consistent calculation

     Convergence has been achieved 


     Representation # 16 mode #  16

     Self-consistent Calculation

      iter #   1 total cpu time :  1081.9 secs   av.it.:   6.8
      thresh= 1.000E-02 alpha_mix =  0.700 |ddv_scf|^2 =  1.399E-06

      iter #   2 total cpu time :  1088.5 secs   av.it.:  12.7
      thresh= 1.183E-04 alpha_mix =  0.700 |ddv_scf|^2 =  7.902E-08

      iter #   3 total cpu time :  1095.5 secs   av.it.:  12.8
      thresh= 2.811E-05 alpha_mix =  0.700 |ddv_scf|^2 =  3.399E-09

      iter #   4 total cpu time :  1102.3 secs   av.it.:  12.5
      thresh= 5.830E-06 alpha_mix =  0.700 |ddv_scf|^2 =  4.042E-11

      iter #   5 total cpu time :  1109.7 secs   av.it.:  12.5
      thresh= 6.357E-07 alpha_mix =  0.700 |ddv_scf|^2 =  1.334E-12

      iter #   6 total cpu time :  1116.4 secs   av.it.:  12.4
      thresh= 1.155E-07 alpha_mix =  0.700 |ddv_scf|^2 =  7.316E-14

      iter #   7 total cpu time :  1123.2 secs   av.it.:  12.5
      thresh= 2.705E-08 alpha_mix =  0.700 |ddv_scf|^2 =  5.462E-15

     End of self-consistent calculation

     Convergence has been achieved 


     Representation # 17 mode #  17

     Self-consistent Calculation

      iter #   1 total cpu time :  1128.6 secs   av.it.:   7.3
      thresh= 1.000E-02 alpha_mix =  0.700 |ddv_scf|^2 =  5.737E-06

      iter #   2 total cpu time :  1135.1 secs   av.it.:  12.3
      thresh= 2.395E-04 alpha_mix =  0.700 |ddv_scf|^2 =  1.078E-06

      iter #   3 total cpu time :  1142.1 secs   av.it.:  12.0
      thresh= 1.038E-04 alpha_mix =  0.700 |ddv_scf|^2 =  3.291E-09

      iter #   4 total cpu time :  1149.1 secs   av.it.:  12.0
      thresh= 5.736E-06 alpha_mix =  0.700 |ddv_scf|^2 =  2.491E-10

      iter #   5 total cpu time :  1156.1 secs   av.it.:  12.1
      thresh= 1.578E-06 alpha_mix =  0.700 |ddv_scf|^2 =  5.148E-12

      iter #   6 total cpu time :  1162.8 secs   av.it.:  12.0
      thresh= 2.269E-07 alpha_mix =  0.700 |ddv_scf|^2 =  9.752E-14

      iter #   7 total cpu time :  1169.0 secs   av.it.:  12.1
      thresh= 3.123E-08 alpha_mix =  0.700 |ddv_scf|^2 =  3.760E-15

     End of self-consistent calculation

     Convergence has been achieved 


     Representation # 18 mode #  18

     Self-consistent Calculation

      iter #   1 total cpu time :  1173.9 secs   av.it.:   6.8
      thresh= 1.000E-02 alpha_mix =  0.700 |ddv_scf|^2 =  1.399E-06

      iter #   2 total cpu time :  1180.4 secs   av.it.:  12.7
      thresh= 1.183E-04 alpha_mix =  0.700 |ddv_scf|^2 =  7.902E-08

      iter #   3 total cpu time :  1186.9 secs   av.it.:  12.8
      thresh= 2.811E-05 alpha_mix =  0.700 |ddv_scf|^2 =  3.399E-09

      iter #   4 total cpu time :  1193.4 secs   av.it.:  12.5
      thresh= 5.830E-06 alpha_mix =  0.700 |ddv_scf|^2 =  4.042E-11

      iter #   5 total cpu time :  1201.5 secs   av.it.:  12.5
      thresh= 6.357E-07 alpha_mix =  0.700 |ddv_scf|^2 =  1.334E-12

      iter #   6 total cpu time :  1209.6 secs   av.it.:  12.4
      thresh= 1.155E-07 alpha_mix =  0.700 |ddv_scf|^2 =  7.316E-14

      iter #   7 total cpu time :  1217.8 secs   av.it.:  12.5
      thresh= 2.705E-08 alpha_mix =  0.700 |ddv_scf|^2 =  5.462E-15

     End of self-consistent calculation

     Convergence has been achieved 
 
     Number of q in the star =    1
     List of q in the star:
          1   0.000000000   0.000000000   0.000000000

          Dielectric constant in cartesian axis 

          (       5.792031173       0.000000002       0.000000000 )
          (       0.000000002       5.792031173       0.000000000 )
          (      -0.000000000      -0.000000000       5.429848679 )

          Effective charges (d Force / dE) in cartesian axis

           atom      1   Sn 
      Ex  (        4.16234        0.57555        0.00000 )
      Ey  (        0.57555        4.16234        0.00000 )
      Ez  (        0.00000       -0.00000        4.58746 )
           atom      2   Sn 
      Ex  (        4.16234       -0.57555        0.00000 )
      Ey  (       -0.57555        4.16234        0.00000 )
      Ez  (        0.00000        0.00000        4.58746 )
           atom      3   O  
      Ex  (       -2.10094        0.85825        0.00000 )
      Ey  (        0.85824       -2.10090        0.00000 )
      Ez  (        0.00000        0.00000       -2.35608 )
           atom      4   O  
      Ex  (       -2.10090        0.85824        0.00000 )
      Ey  (        0.85825       -2.10094        0.00000 )
      Ez  (        0.00000        0.00000       -2.35608 )
           atom      5   O  
      Ex  (       -2.10091       -0.85823        0.00000 )
      Ey  (       -0.85823       -2.10091        0.00000 )
      Ez  (       -0.00000        0.00000       -2.35608 )
           atom      6   O  
      Ex  (       -2.10093       -0.85825        0.00000 )
      Ey  (       -0.85825       -2.10093        0.00000 )
      Ez  (       -0.00000       -0.00000       -2.35608 )

          Effective charges (d P / du) in cartesian axis 

           atom      1   Sn 
      Px  (        4.16221        0.57610        0.00000 )
      Py  (        0.57610        4.16221        0.00000 )
      Pz  (        0.00000        0.00000        4.58761 )
           atom      2   Sn 
      Px  (        4.16221       -0.57610       -0.00000 )
      Py  (       -0.57610        4.16221       -0.00000 )
      Pz  (        0.00000        0.00000        4.58761 )
           atom      3   O  
      Px  (       -2.10098        0.85819       -0.00000 )
      Py  (        0.85816       -2.10109       -0.00000 )
      Pz  (       -0.00000        0.00000       -2.35576 )
           atom      4   O  
      Px  (       -2.10109        0.85816       -0.00000 )
      Py  (        0.85819       -2.10098       -0.00000 )
      Pz  (       -0.00000       -0.00000       -2.35576 )
           atom      5   O  
      Px  (       -2.10086       -0.85838        0.00000 )
      Py  (       -0.85838       -2.10086        0.00000 )
      Pz  (        0.00000        0.00000       -2.35577 )
           atom      6   O  
      Px  (       -2.10084       -0.85837        0.00000 )
      Py  (       -0.85837       -2.10084        0.00000 )
      Pz  (        0.00000        0.00000       -2.35577 )

     Diagonalizing the dynamical matrix

     q = (    0.000000000   0.000000000   0.000000000 ) 

 **************************************************************************
     freq (    1) =      -0.650550 [THz] =     -21.700020 [cm-1]
     freq (    2) =      -0.567978 [THz] =     -18.945697 [cm-1]
     freq (    3) =       0.726167 [THz] =      24.222338 [cm-1]
     freq (    4) =       2.855115 [THz] =      95.236400 [cm-1]
     freq (    5) =       4.239844 [THz] =     141.425976 [cm-1]
     freq (    6) =       6.397459 [THz] =     213.396259 [cm-1]
     freq (    7) =       6.404125 [THz] =     213.618601 [cm-1]
     freq (    8) =       7.792288 [THz] =     259.922734 [cm-1]
     freq (    9) =       7.796430 [THz] =     260.060898 [cm-1]
     freq (   10) =      10.049145 [THz] =     335.203386 [cm-1]
     freq (   11) =      13.088569 [THz] =     436.587664 [cm-1]
     freq (   12) =      13.286814 [THz] =     443.200407 [cm-1]
     freq (   13) =      13.298546 [THz] =     443.591740 [cm-1]
     freq (   14) =      15.964236 [THz] =     532.509583 [cm-1]
     freq (   15) =      16.433189 [THz] =     548.152177 [cm-1]
     freq (   16) =      16.433955 [THz] =     548.177742 [cm-1]
     freq (   17) =      17.506503 [THz] =     583.954097 [cm-1]
     freq (   18) =      21.136642 [THz] =     705.042484 [cm-1]
 **************************************************************************

     Mode symmetry, C_2v (mm2)  point group:

     freq (  1 -  1) =        -21.7  [cm-1]   --> A_1  D_1  S_1   I+R
     freq (  2 -  2) =        -18.9  [cm-1]   --> B_1  D_3  S_3   I+R
     freq (  3 -  3) =         24.2  [cm-1]   --> B_2  D_4  S_4   I+R
     freq (  4 -  4) =         95.2  [cm-1]   --> B_1  D_3  S_3   I+R
     freq (  5 -  5) =        141.4  [cm-1]   --> B_2  D_4  S_4   I+R
     freq (  6 -  6) =        213.4  [cm-1]   --> B_1  D_3  S_3   I+R
     freq (  7 -  7) =        213.6  [cm-1]   --> A_1  D_1  S_1   I+R
     freq (  8 -  8) =        259.9  [cm-1]   --> A_1  D_1  S_1   I+R
     freq (  9 -  9) =        260.1  [cm-1]   --> B_1  D_3  S_3   I+R
     freq ( 10 - 10) =        335.2  [cm-1]   --> B_1  D_3  S_3   I+R
     freq ( 11 - 11) =        436.6  [cm-1]   --> B_2  D_4  S_4   I+R
     freq ( 12 - 12) =        443.2  [cm-1]   --> A_2  D_2  S_2   R  
     freq ( 13 - 13) =        443.6  [cm-1]   --> B_2  D_4  S_4   I+R
     freq ( 14 - 14) =        532.5  [cm-1]   --> B_2  D_4  S_4   I+R
     freq ( 15 - 15) =        548.2  [cm-1]   --> A_1  D_1  S_1   I+R
     freq ( 16 - 16) =        548.2  [cm-1]   --> B_1  D_3  S_3   I+R
     freq ( 17 - 17) =        584.0  [cm-1]   --> A_1  D_1  S_1   I+R
     freq ( 18 - 18) =        705.0  [cm-1]   --> A_1  D_1  S_1   I+R

     Calculation of q =    0.0000000   0.0000000   0.3722466
 
     Parallelization info
     --------------------
     sticks:   dense  smooth     PW     G-vecs:    dense   smooth      PW
     Min         250     250     73                 5618     5618     894
     Max         251     251     75                 5619     5619     895
     Sum        2001    2001    593                44945    44945    7155
 

     Title: 
     Phonon dispersions for SnO2                                                


     bravais-lattice index     =            6
     lattice parameter (alat)  =       9.1370  a.u.
     unit-cell volume          =     512.3005 (a.u.)^3
     number of atoms/cell      =            6
     number of atomic types    =            2
     number of electrons       =        52.00
     number of Kohn-Sham states=           26
     kinetic-energy cutoff     =      75.0000  Ry
     charge density cutoff     =     300.0000  Ry
     Exchange-correlation      = PBE ( 1  4  3  4 0 0)

     celldm(1)=   9.137033  celldm(2)=   1.000000  celldm(3)=   0.671598
     celldm(4)=   0.000000  celldm(5)=   0.000000  celldm(6)=   0.000000

     crystal axes: (cart. coord. in units of alat)
               a(1) = (   1.000000   0.000000   0.000000 )  
               a(2) = (   0.000000   1.000000   0.000000 )  
               a(3) = (   0.000000   0.000000   0.671598 )  

     reciprocal axes: (cart. coord. in units 2 pi/alat)
               b(1) = (  1.000000  0.000000  0.000000 )  
               b(2) = (  0.000000  1.000000  0.000000 )  
               b(3) = (  0.000000  0.000000  1.488987 )  


     PseudoPot. # 1 for Sn read from file:
     ../../../Pseudo_potentials/Sn_PBE.upf
     MD5 check sum: 78e6386ae56e929f0568ae8bf606a80c
     Pseudo is Norm-conserving + core correction, Zval = 14.0
     Generated using ONCVPSP code by D. R. Hamann
     Using radial grid of 1628 points,  6 beta functions with: 
                l(1) =   0
                l(2) =   0
                l(3) =   1
                l(4) =   1
                l(5) =   2
                l(6) =   2

     PseudoPot. # 2 for O  read from file:
     ../../../Pseudo_potentials/O_PBE.upf
     MD5 check sum: 3e3f909f7470e8921608ab6b1f57bbae
     Pseudo is Norm-conserving + core correction, Zval =  6.0
     Generated using ONCVPSP code by D. R. Hamann
     Using radial grid of  936 points,  5 beta functions with: 
                l(1) =   0
                l(2) =   0
                l(3) =   1
                l(4) =   1
                l(5) =   2

     atomic species   valence    mass     pseudopotential
        Sn            14.00   118.71000     Sn( 1.00)
        O              6.00    15.99900     O ( 1.00)

      4 Sym. Ops. (no inversion) found



   Cartesian axes

     site n.     atom                  positions (alat units)
         1           Sn  tau(   1) = (  -0.0003320  -0.0003320   0.0000000  )
         2           Sn  tau(   2) = (   0.4996675   0.4996675   0.3357989  )
         3           O   tau(   3) = (   0.8063692   0.1929618   0.3357989  )
         4           O   tau(   4) = (   0.1929618   0.8063692   0.3357989  )
         5           O   tau(   5) = (   0.3063705   0.3063705   0.0000000  )
         6           O   tau(   6) = (   0.6929630   0.6929630   0.0000000  )

     number of k points=    80
                       cart. coord. in units 2pi/alat
        k(    1) = (   0.0000000   0.0000000   0.0000000), wk =   0.0312500
        k(    2) = (   0.0000000   0.0000000   0.3722466), wk =   0.0000000
        k(    3) = (   0.0000000   0.0000000   0.3722466), wk =   0.0312500
        k(    4) = (   0.0000000   0.0000000   0.7444933), wk =   0.0000000
        k(    5) = (   0.0000000   0.0000000  -0.7444933), wk =   0.0312500
        k(    6) = (   0.0000000   0.0000000  -0.3722466), wk =   0.0000000
        k(    7) = (   0.0000000   0.2500000   0.0000000), wk =   0.0625000
        k(    8) = (   0.0000000   0.2500000   0.3722466), wk =   0.0000000
        k(    9) = (   0.0000000   0.2500000   0.3722466), wk =   0.0625000
        k(   10) = (   0.0000000   0.2500000   0.7444933), wk =   0.0000000
        k(   11) = (   0.0000000   0.2500000  -0.7444933), wk =   0.0625000
        k(   12) = (   0.0000000   0.2500000  -0.3722466), wk =   0.0000000
        k(   13) = (   0.0000000  -0.5000000   0.0000000), wk =   0.0625000
        k(   14) = (   0.0000000  -0.5000000   0.3722466), wk =   0.0000000
        k(   15) = (   0.0000000  -0.5000000   0.3722466), wk =   0.0625000
        k(   16) = (   0.0000000  -0.5000000   0.7444933), wk =   0.0000000
        k(   17) = (   0.0000000  -0.5000000  -0.7444933), wk =   0.0625000
        k(   18) = (   0.0000000  -0.5000000  -0.3722466), wk =   0.0000000
        k(   19) = (   0.2500000   0.2500000   0.0000000), wk =   0.0312500
        k(   20) = (   0.2500000   0.2500000   0.3722466), wk =   0.0000000
        k(   21) = (   0.2500000   0.2500000   0.3722466), wk =   0.0312500
        k(   22) = (   0.2500000   0.2500000   0.7444933), wk =   0.0000000
        k(   23) = (   0.2500000   0.2500000  -0.7444933), wk =   0.0312500
        k(   24) = (   0.2500000   0.2500000  -0.3722466), wk =   0.0000000
        k(   25) = (   0.2500000  -0.5000000   0.0000000), wk =   0.0625000
        k(   26) = (   0.2500000  -0.5000000   0.3722466), wk =   0.0000000
        k(   27) = (   0.2500000  -0.5000000   0.3722466), wk =   0.0625000
        k(   28) = (   0.2500000  -0.5000000   0.7444933), wk =   0.0000000
        k(   29) = (   0.2500000  -0.5000000  -0.7444933), wk =   0.0625000
        k(   30) = (   0.2500000  -0.5000000  -0.3722466), wk =   0.0000000
        k(   31) = (  -0.5000000  -0.5000000   0.0000000), wk =   0.0312500
        k(   32) = (  -0.5000000  -0.5000000   0.3722466), wk =   0.0000000
        k(   33) = (  -0.5000000  -0.5000000   0.3722466), wk =   0.0312500
        k(   34) = (  -0.5000000  -0.5000000   0.7444933), wk =   0.0000000
        k(   35) = (  -0.5000000  -0.5000000  -0.7444933), wk =   0.0312500
        k(   36) = (  -0.5000000  -0.5000000  -0.3722466), wk =   0.0000000
        k(   37) = (   0.0000000   0.0000000  -0.3722466), wk =   0.0312500
        k(   38) = (   0.0000000   0.0000000   0.0000000), wk =   0.0000000
        k(   39) = (   0.0000000  -0.2500000   0.0000000), wk =   0.0625000
        k(   40) = (   0.0000000  -0.2500000   0.3722466), wk =   0.0000000
        k(   41) = (   0.0000000   0.2500000  -0.3722466), wk =   0.0625000
        k(   42) = (   0.0000000   0.2500000   0.0000000), wk =   0.0000000
        k(   43) = (   0.0000000  -0.2500000   0.3722466), wk =   0.0625000
        k(   44) = (   0.0000000  -0.2500000   0.7444933), wk =   0.0000000
        k(   45) = (  -0.2500000   0.0000000  -0.3722466), wk =   0.0625000
        k(   46) = (  -0.2500000   0.0000000   0.0000000), wk =   0.0000000
        k(   47) = (   0.0000000  -0.2500000  -0.7444933), wk =   0.0625000
        k(   48) = (   0.0000000  -0.2500000  -0.3722466), wk =   0.0000000
        k(   49) = (   0.0000000  -0.5000000  -0.3722466), wk =   0.0625000
        k(   50) = (   0.0000000  -0.5000000   0.0000000), wk =   0.0000000
        k(   51) = (  -0.2500000  -0.2500000   0.0000000), wk =   0.0312500
        k(   52) = (  -0.2500000  -0.2500000   0.3722466), wk =   0.0000000
        k(   53) = (   0.2500000  -0.2500000   0.0000000), wk =   0.0625000
        k(   54) = (   0.2500000  -0.2500000   0.3722466), wk =   0.0000000
        k(   55) = (   0.2500000   0.2500000  -0.3722466), wk =   0.0312500
        k(   56) = (   0.2500000   0.2500000   0.0000000), wk =   0.0000000
        k(   57) = (  -0.2500000  -0.2500000   0.3722466), wk =   0.0312500
        k(   58) = (  -0.2500000  -0.2500000   0.7444933), wk =   0.0000000
        k(   59) = (  -0.2500000  -0.2500000  -0.3722466), wk =   0.0312500
        k(   60) = (  -0.2500000  -0.2500000   0.0000000), wk =   0.0000000
        k(   61) = (   0.2500000  -0.2500000   0.3722466), wk =   0.0625000
        k(   62) = (   0.2500000  -0.2500000   0.7444933), wk =   0.0000000
        k(   63) = (  -0.2500000   0.2500000  -0.3722466), wk =   0.0625000
        k(   64) = (  -0.2500000   0.2500000   0.0000000), wk =   0.0000000
        k(   65) = (  -0.2500000  -0.2500000  -0.7444933), wk =   0.0312500
        k(   66) = (  -0.2500000  -0.2500000  -0.3722466), wk =   0.0000000
        k(   67) = (   0.2500000  -0.2500000  -0.7444933), wk =   0.0625000
        k(   68) = (   0.2500000  -0.2500000  -0.3722466), wk =   0.0000000
        k(   69) = (  -0.2500000   0.5000000   0.0000000), wk =   0.0625000
        k(   70) = (  -0.2500000   0.5000000   0.3722466), wk =   0.0000000
        k(   71) = (   0.2500000  -0.5000000  -0.3722466), wk =   0.0625000
        k(   72) = (   0.2500000  -0.5000000   0.0000000), wk =   0.0000000
        k(   73) = (  -0.2500000   0.5000000   0.3722466), wk =   0.0625000
        k(   74) = (  -0.2500000   0.5000000   0.7444933), wk =   0.0000000
        k(   75) = (   0.5000000  -0.2500000  -0.3722466), wk =   0.0625000
        k(   76) = (   0.5000000  -0.2500000   0.0000000), wk =   0.0000000
        k(   77) = (  -0.2500000   0.5000000  -0.7444933), wk =   0.0625000
        k(   78) = (  -0.2500000   0.5000000  -0.3722466), wk =   0.0000000
        k(   79) = (  -0.5000000  -0.5000000  -0.3722466), wk =   0.0312500
        k(   80) = (  -0.5000000  -0.5000000   0.0000000), wk =   0.0000000

     Dense  grid:    44945 G-vectors     FFT dimensions: (  54,  54,  36)

     Estimated max dynamical RAM per process >       9.68 MB

     Estimated total dynamical RAM >      77.40 MB

     Check: negative/imaginary core charge=   -0.000002    0.000000

     The potential is recalculated from file :
     ./_ph0/444.save/charge-density.dat

     Starting wfc are   34 atomic wfcs

     Band Structure Calculation
     Davidson diagonalization with overlap

     ethr =  1.92E-11,  avg # of iterations = 12.1

     total cpu time spent up to now is       21.4 secs

     End of band structure calculation

          k = 0.0000 0.0000 0.0000 (  5609 PWs)   bands (ev):

   -12.1626 -11.5450 -11.3470 -11.3189 -11.3189 -11.2385 -11.2181 -11.1520
   -11.1404 -11.1404  -9.6859  -7.9707  -7.9707  -6.5142   0.9520   5.0331
     5.0331   5.1380   6.0354   6.8925   6.9464   7.6277   7.6277   8.1988
     8.1988   8.9050

          k = 0.0000 0.0000 0.3722 (  5617 PWs)   bands (ev):

   -11.9331 -11.6684 -11.6684 -11.3667 -11.2649 -11.2522 -11.2009 -11.1882
   -11.1882 -11.1543  -9.3178  -7.3321  -7.3321  -6.9288   1.0010   4.3325
     4.8040   5.4731   5.4731   6.1603   6.1603   6.3414   6.4217   8.1120
     8.1120   8.4645

          k = 0.0000 0.0000 0.3722 (  5617 PWs)   bands (ev):

   -11.9331 -11.6684 -11.6684 -11.3667 -11.2649 -11.2522 -11.2009 -11.1882
   -11.1882 -11.1543  -9.3178  -7.3321  -7.3321  -6.9288   1.0010   4.3325
     4.8040   5.4731   5.4731   6.1603   6.1603   6.3414   6.4217   8.1120
     8.1120   8.4645

          k = 0.0000 0.0000 0.7445 (  5592 PWs)   bands (ev):

   -11.9501 -11.9501 -11.5390 -11.5390 -11.2291 -11.2291 -11.1701 -11.1701
   -11.1439 -11.1439  -8.1430  -8.1430  -6.7335  -6.7335   1.8690   1.8690
     4.8539   4.8539   5.2050   5.2050   6.3255   6.3255   7.4124   7.4124
     7.7393   7.7393

          k = 0.0000 0.0000-0.7445 (  5592 PWs)   bands (ev):

   -11.9501 -11.9501 -11.5390 -11.5390 -11.2291 -11.2291 -11.1701 -11.1701
   -11.1439 -11.1439  -8.1430  -8.1430  -6.7335  -6.7335   1.8690   1.8690
     4.8539   4.8539   5.2050   5.2050   6.3255   6.3255   7.4124   7.4124
     7.7393   7.7393

          k = 0.0000 0.0000-0.3722 (  5617 PWs)   bands (ev):

   -11.9331 -11.6684 -11.6684 -11.3667 -11.2649 -11.2522 -11.2009 -11.1882
   -11.1882 -11.1543  -9.3178  -7.3321  -7.3321  -6.9288   1.0010   4.3325
     4.8040   5.4731   5.4731   6.1603   6.1603   6.3414   6.4217   8.1120
     8.1120   8.4645

          k = 0.0000 0.2500 0.0000 (  5635 PWs)   bands (ev):

   -12.0830 -11.6330 -11.3440 -11.3157 -11.3156 -11.2902 -11.2072 -11.1604
   -11.1443 -11.1441  -9.4985  -8.3184  -7.6929  -6.6391   1.3608   4.0371
     5.3004   5.3527   6.3468   6.5918   7.1183   7.2886   7.6484   7.6813
     8.2276   8.6421

          k = 0.0000 0.2500 0.3722 (  5630 PWs)   bands (ev):

   -11.9344 -11.7627 -11.5918 -11.3650 -11.2619 -11.2483 -11.1968 -11.1830
   -11.1822 -11.1584  -9.1511  -7.8801  -7.1617  -6.7338   1.4021   3.8184
     4.2377   4.5802   5.8786   5.9479   6.4348   6.9891   7.1456   8.0315
     8.0601   8.4349

          k = 0.0000 0.2500 0.3722 (  5630 PWs)   bands (ev):

   -11.9344 -11.7627 -11.5918 -11.3650 -11.2619 -11.2483 -11.1968 -11.1830
   -11.1822 -11.1584  -9.1511  -7.8801  -7.1617  -6.7338   1.4021   3.8184
     4.2377   4.5802   5.8786   5.9479   6.4348   6.9891   7.1456   8.0315
     8.0601   8.4349

          k = 0.0000 0.2500 0.7445 (  5594 PWs)   bands (ev):

   -12.0366 -12.0366 -11.4196 -11.4196 -11.2323 -11.2323 -11.1677 -11.1677
   -11.1383 -11.1383  -8.2496  -8.2496  -6.6471  -6.6471   1.9678   1.9678
     4.1742   4.1742   4.9509   4.9509   7.1072   7.1072   7.6026   7.6026
     7.8400   7.8400

          k = 0.0000 0.2500-0.7445 (  5594 PWs)   bands (ev):

   -12.0366 -12.0366 -11.4196 -11.4196 -11.2323 -11.2323 -11.1677 -11.1677
   -11.1383 -11.1383  -8.2496  -8.2496  -6.6471  -6.6471   1.9678   1.9678
     4.1742   4.1742   4.9509   4.9509   7.1072   7.1072   7.6026   7.6026
     7.8400   7.8400

          k = 0.0000 0.2500-0.3722 (  5630 PWs)   bands (ev):

   -11.9344 -11.7627 -11.5918 -11.3650 -11.2619 -11.2483 -11.1968 -11.1830
   -11.1822 -11.1584  -9.1511  -7.8801  -7.1617  -6.7338   1.4021   3.8184
     4.2377   4.5802   5.8786   5.9479   6.4348   6.9891   7.1456   8.0315
     8.0601   8.4349

          k = 0.0000-0.5000 0.0000 (  5638 PWs)   bands (ev):

   -11.8700 -11.8700 -11.3317 -11.3317 -11.3122 -11.3122 -11.1826 -11.1826
   -11.1481 -11.1481  -8.9779  -8.9779  -7.1034  -7.1034   2.5030   2.5030
     5.9181   5.9181   6.0414   6.0415   7.0261   7.0261   7.6873   7.6873
     8.3164   8.3165

          k = 0.0000-0.5000 0.3722 (  5634 PWs)   bands (ev):

   -11.8849 -11.8849 -11.4498 -11.4498 -11.2540 -11.2540 -11.1863 -11.1863
   -11.1693 -11.1693  -8.6283  -8.6282  -6.8411  -6.8411   2.4886   2.4886
     4.0708   4.0708   5.8511   5.8511   7.3812   7.3812   7.5712   7.5712
     8.1511   8.1511

          k = 0.0000-0.5000 0.3722 (  5634 PWs)   bands (ev):

   -11.8849 -11.8849 -11.4498 -11.4498 -11.2540 -11.2540 -11.1863 -11.1863
   -11.1693 -11.1693  -8.6283  -8.6282  -6.8411  -6.8411   2.4886   2.4886
     4.0708   4.0708   5.8511   5.8511   7.3812   7.3812   7.5712   7.5712
     8.1511   8.1511

          k = 0.0000-0.5000 0.7445 (  5596 PWs)   bands (ev):

   -12.0981 -12.0981 -11.3303 -11.3303 -11.2286 -11.2286 -11.1655 -11.1655
   -11.1324 -11.1324  -8.3496  -8.3496  -6.5691  -6.5691   2.1188   2.1188
     3.5832   3.5832   4.8956   4.8956   7.2474   7.2474   7.9227   7.9227
     8.1384   8.1384

          k = 0.0000-0.5000-0.7445 (  5596 PWs)   bands (ev):

   -12.0981 -12.0981 -11.3303 -11.3303 -11.2286 -11.2286 -11.1655 -11.1655
   -11.1324 -11.1324  -8.3496  -8.3496  -6.5691  -6.5691   2.1188   2.1188
     3.5832   3.5832   4.8956   4.8956   7.2474   7.2474   7.9227   7.9227
     8.1384   8.1384

          k = 0.0000-0.5000-0.3722 (  5634 PWs)   bands (ev):

   -11.8849 -11.8849 -11.4498 -11.4498 -11.2540 -11.2540 -11.1863 -11.1863
   -11.1693 -11.1693  -8.6283  -8.6282  -6.8411  -6.8411   2.4886   2.4886
     4.0708   4.0708   5.8511   5.8511   7.3812   7.3812   7.5712   7.5712
     8.1511   8.1511

          k = 0.2500 0.2500 0.0000 (  5644 PWs)   bands (ev):

   -12.0375 -11.7201 -11.3389 -11.3199 -11.3122 -11.3078 -11.1990 -11.1658
   -11.1481 -11.1400  -9.2878  -8.0564  -8.0220  -6.8412   1.7902   3.9375
     5.0821   5.5257   6.4141   6.5477   6.6397   7.3105   7.5926   7.6908
     8.1406   8.4626

          k = 0.2500 0.2500 0.3722 (  5619 PWs)   bands (ev):

   -11.9181 -11.7073 -11.6720 -11.3993 -11.2635 -11.2417 -11.1954 -11.1827
   -11.1813 -11.1620  -8.9495  -7.8533  -7.3754  -6.7581   1.6761   3.0420
     4.3785   5.4140   5.5583   5.6169   6.1935   7.2401   7.5908   7.8376
     8.1151   8.4311

          k = 0.2500 0.2500 0.3722 (  5619 PWs)   bands (ev):

   -11.9181 -11.7073 -11.6720 -11.3993 -11.2635 -11.2417 -11.1954 -11.1827
   -11.1813 -11.1620  -8.9495  -7.8533  -7.3754  -6.7581   1.6761   3.0420
     4.3785   5.4140   5.5583   5.6169   6.1935   7.2401   7.5908   7.8376
     8.1151   8.4311

          k = 0.2500 0.2500 0.7445 (  5618 PWs)   bands (ev):

   -12.0979 -11.9549 -11.5470 -11.3216 -11.2351 -11.2324 -11.1677 -11.1654
   -11.1381 -11.1347  -8.3504  -8.0699  -6.7685  -6.5670   1.4858   2.0749
     3.8987   4.4074   4.4641   6.0556   6.3450   7.7137   7.7349   7.7753
     7.8297   7.9584

          k = 0.2500 0.2500-0.7445 (  5618 PWs)   bands (ev):

   -12.0979 -11.9549 -11.5470 -11.3216 -11.2351 -11.2324 -11.1677 -11.1654
   -11.1381 -11.1347  -8.3504  -8.0699  -6.7685  -6.5670   1.4858   2.0749
     3.8987   4.4074   4.4641   6.0556   6.3450   7.7137   7.7349   7.7753
     7.8297   7.9584

          k = 0.2500 0.2500-0.3722 (  5619 PWs)   bands (ev):

   -11.9181 -11.7073 -11.6720 -11.3993 -11.2635 -11.2417 -11.1954 -11.1827
   -11.1813 -11.1620  -8.9495  -7.8533  -7.3754  -6.7581   1.6761   3.0420
     4.3785   5.4140   5.5583   5.6169   6.1935   7.2401   7.5908   7.8376
     8.1151   8.4311

          k = 0.2500-0.5000 0.0000 (  5618 PWs)   bands (ev):

   -11.9006 -11.9006 -11.3270 -11.3270 -11.3167 -11.3167 -11.1810 -11.1810
   -11.1437 -11.1437  -8.7233  -8.7233  -7.4108  -7.4108   2.8779   2.8780
     5.6841   5.6841   5.9623   5.9623   7.0423   7.0423   7.6243   7.6243
     8.1879   8.1879

          k = 0.2500-0.5000 0.3722 (  5614 PWs)   bands (ev):

   -11.8370 -11.8370 -11.5315 -11.5315 -11.2534 -11.2534 -11.1885 -11.1885
   -11.1712 -11.1712  -8.4033  -8.4033  -7.0693  -7.0692   2.3004   2.3004
     4.7130   4.7130   5.5675   5.5675   7.0920   7.0920   7.7073   7.7073
     8.2208   8.2209

          k = 0.2500-0.5000 0.3722 (  5614 PWs)   bands (ev):

   -11.8370 -11.8370 -11.5315 -11.5315 -11.2534 -11.2534 -11.1885 -11.1885
   -11.1712 -11.1712  -8.4033  -8.4033  -7.0693  -7.0692   2.3004   2.3004
     4.7130   4.7130   5.5675   5.5675   7.0920   7.0920   7.7073   7.7073
     8.2208   8.2209

          k = 0.2500-0.5000 0.7445 (  5604 PWs)   bands (ev):

   -12.0406 -12.0406 -11.4276 -11.4276 -11.2329 -11.2329 -11.1655 -11.1655
   -11.1361 -11.1361  -8.1840  -8.1840  -6.6727  -6.6727   1.5327   1.5327
     4.1982   4.1982   5.0515   5.0515   7.4067   7.4067   7.9052   7.9052
     8.0266   8.0266

          k = 0.2500-0.5000-0.7445 (  5604 PWs)   bands (ev):

   -12.0406 -12.0406 -11.4276 -11.4276 -11.2329 -11.2329 -11.1655 -11.1655
   -11.1361 -11.1361  -8.1840  -8.1840  -6.6727  -6.6727   1.5327   1.5327
     4.1982   4.1982   5.0515   5.0515   7.4067   7.4067   7.9052   7.9052
     8.0266   8.0266

          k = 0.2500-0.5000-0.3722 (  5614 PWs)   bands (ev):

   -11.8370 -11.8370 -11.5315 -11.5315 -11.2534 -11.2534 -11.1885 -11.1885
   -11.1712 -11.1712  -8.4033  -8.4033  -7.0693  -7.0692   2.3004   2.3004
     4.7130   4.7130   5.5675   5.5675   7.0920   7.0920   7.7073   7.7073
     8.2208   8.2209

          k =-0.5000-0.5000 0.0000 (  5660 PWs)   bands (ev):

   -11.9293 -11.9293 -11.3230 -11.3230 -11.3209 -11.3209 -11.1795 -11.1795
   -11.1395 -11.1395  -8.1118  -8.1118  -8.0734  -8.0734   3.3760   3.3760
     5.1949   5.1949   6.0098   6.0098   7.0698   7.0698   7.5579   7.5579
     8.0637   8.0637

          k =-0.5000-0.5000 0.3722 (  5584 PWs)   bands (ev):

   -11.7262 -11.7262 -11.6753 -11.6753 -11.2527 -11.2527 -11.1894 -11.1894
   -11.1725 -11.1725  -8.0593  -8.0593  -7.4185  -7.4185   2.1830   2.1830
     5.2528   5.2528   5.7905   5.7905   6.2771   6.2771   8.0666   8.0666
     8.1061   8.1061

          k =-0.5000-0.5000 0.3722 (  5584 PWs)   bands (ev):

   -11.7262 -11.7262 -11.6753 -11.6753 -11.2527 -11.2527 -11.1894 -11.1894
   -11.1725 -11.1725  -8.0593  -8.0593  -7.4185  -7.4185   2.1830   2.1830
     5.2528   5.2528   5.7905   5.7905   6.2771   6.2771   8.0666   8.0666
     8.1061   8.1061

          k =-0.5000-0.5000 0.7445 (  5616 PWs)   bands (ev):

   -11.9595 -11.9595 -11.5515 -11.5515 -11.2309 -11.2309 -11.1655 -11.1655
   -11.1398 -11.1398  -7.9949  -7.9949  -6.8032  -6.8032   1.1759   1.1759
     4.1551   4.1551   6.3856   6.3856   6.4667   6.4667   8.0043   8.0043
     8.1493   8.1493

          k =-0.5000-0.5000-0.7445 (  5616 PWs)   bands (ev):

   -11.9595 -11.9595 -11.5515 -11.5515 -11.2309 -11.2309 -11.1655 -11.1655
   -11.1398 -11.1398  -7.9949  -7.9949  -6.8032  -6.8032   1.1759   1.1759
     4.1551   4.1551   6.3856   6.3856   6.4667   6.4667   8.0043   8.0043
     8.1493   8.1493

          k =-0.5000-0.5000-0.3722 (  5584 PWs)   bands (ev):

   -11.7262 -11.7262 -11.6753 -11.6753 -11.2527 -11.2527 -11.1894 -11.1894
   -11.1725 -11.1725  -8.0593  -8.0593  -7.4185  -7.4185   2.1830   2.1830
     5.2528   5.2528   5.7905   5.7905   6.2771   6.2771   8.0666   8.0666
     8.1061   8.1061

          k = 0.0000 0.0000-0.3722 (  5617 PWs)   bands (ev):

   -11.9331 -11.6684 -11.6684 -11.3667 -11.2649 -11.2522 -11.2009 -11.1882
   -11.1882 -11.1543  -9.3178  -7.3321  -7.3321  -6.9288   1.0010   4.3325
     4.8040   5.4731   5.4731   6.1603   6.1603   6.3414   6.4217   8.1120
     8.1120   8.4645

          k = 0.0000 0.0000 0.0000 (  5609 PWs)   bands (ev):

   -12.1626 -11.5450 -11.3470 -11.3189 -11.3189 -11.2385 -11.2181 -11.1520
   -11.1404 -11.1404  -9.6859  -7.9707  -7.9707  -6.5142   0.9520   5.0331
     5.0331   5.1380   6.0354   6.8925   6.9464   7.6277   7.6277   8.1988
     8.1988   8.9050

          k = 0.0000-0.2500 0.0000 (  5635 PWs)   bands (ev):

   -12.0830 -11.6330 -11.3440 -11.3157 -11.3156 -11.2902 -11.2072 -11.1604
   -11.1443 -11.1441  -9.4985  -8.3184  -7.6929  -6.6391   1.3608   4.0371
     5.3004   5.3527   6.3468   6.5918   7.1183   7.2886   7.6484   7.6813
     8.2276   8.6421

          k = 0.0000-0.2500 0.3722 (  5630 PWs)   bands (ev):

   -11.9344 -11.7627 -11.5918 -11.3650 -11.2619 -11.2483 -11.1968 -11.1830
   -11.1822 -11.1584  -9.1511  -7.8801  -7.1617  -6.7338   1.4021   3.8184
     4.2377   4.5802   5.8786   5.9479   6.4348   6.9891   7.1456   8.0315
     8.0601   8.4349

          k = 0.0000 0.2500-0.3722 (  5630 PWs)   bands (ev):

   -11.9344 -11.7627 -11.5918 -11.3650 -11.2619 -11.2483 -11.1968 -11.1830
   -11.1822 -11.1584  -9.1511  -7.8801  -7.1617  -6.7338   1.4021   3.8184
     4.2377   4.5802   5.8786   5.9479   6.4348   6.9891   7.1456   8.0315
     8.0601   8.4349

          k = 0.0000 0.2500 0.0000 (  5635 PWs)   bands (ev):

   -12.0830 -11.6330 -11.3440 -11.3157 -11.3156 -11.2902 -11.2072 -11.1604
   -11.1443 -11.1441  -9.4985  -8.3184  -7.6929  -6.6391   1.3608   4.0371
     5.3004   5.3527   6.3468   6.5918   7.1183   7.2886   7.6484   7.6813
     8.2276   8.6421

          k = 0.0000-0.2500 0.3722 (  5630 PWs)   bands (ev):

   -11.9344 -11.7627 -11.5918 -11.3650 -11.2619 -11.2483 -11.1968 -11.1830
   -11.1822 -11.1584  -9.1511  -7.8801  -7.1617  -6.7338   1.4021   3.8184
     4.2377   4.5802   5.8786   5.9479   6.4348   6.9891   7.1456   8.0315
     8.0601   8.4349

          k = 0.0000-0.2500 0.7445 (  5594 PWs)   bands (ev):

   -12.0366 -12.0366 -11.4196 -11.4196 -11.2323 -11.2323 -11.1677 -11.1677
   -11.1383 -11.1383  -8.2496  -8.2496  -6.6471  -6.6471   1.9678   1.9678
     4.1742   4.1742   4.9509   4.9509   7.1072   7.1072   7.6026   7.6026
     7.8400   7.8400

          k =-0.2500 0.0000-0.3722 (  5630 PWs)   bands (ev):

   -11.9344 -11.7627 -11.5918 -11.3650 -11.2619 -11.2483 -11.1968 -11.1830
   -11.1822 -11.1584  -9.1511  -7.8801  -7.1617  -6.7338   1.4021   3.8184
     4.2377   4.5802   5.8786   5.9479   6.4348   6.9891   7.1456   8.0315
     8.0601   8.4349

          k =-0.2500 0.0000 0.0000 (  5635 PWs)   bands (ev):

   -12.0830 -11.6330 -11.3440 -11.3157 -11.3156 -11.2902 -11.2072 -11.1604
   -11.1443 -11.1441  -9.4985  -8.3184  -7.6929  -6.6391   1.3608   4.0371
     5.3004   5.3527   6.3468   6.5918   7.1183   7.2886   7.6484   7.6813
     8.2276   8.6421

          k = 0.0000-0.2500-0.7445 (  5594 PWs)   bands (ev):

   -12.0366 -12.0366 -11.4196 -11.4196 -11.2323 -11.2323 -11.1677 -11.1677
   -11.1383 -11.1383  -8.2496  -8.2496  -6.6471  -6.6471   1.9678   1.9678
     4.1742   4.1742   4.9509   4.9509   7.1072   7.1072   7.6026   7.6026
     7.8400   7.8400

          k = 0.0000-0.2500-0.3722 (  5630 PWs)   bands (ev):

   -11.9344 -11.7627 -11.5918 -11.3650 -11.2619 -11.2483 -11.1968 -11.1830
   -11.1822 -11.1584  -9.1511  -7.8801  -7.1617  -6.7338   1.4021   3.8184
     4.2377   4.5802   5.8786   5.9479   6.4348   6.9891   7.1456   8.0315
     8.0601   8.4349

          k = 0.0000-0.5000-0.3722 (  5634 PWs)   bands (ev):

   -11.8849 -11.8849 -11.4498 -11.4498 -11.2540 -11.2540 -11.1863 -11.1863
   -11.1693 -11.1693  -8.6283  -8.6282  -6.8411  -6.8411   2.4886   2.4886
     4.0708   4.0708   5.8511   5.8511   7.3812   7.3812   7.5712   7.5712
     8.1511   8.1511

          k = 0.0000-0.5000 0.0000 (  5638 PWs)   bands (ev):

   -11.8700 -11.8700 -11.3317 -11.3317 -11.3122 -11.3122 -11.1826 -11.1826
   -11.1481 -11.1481  -8.9779  -8.9779  -7.1034  -7.1034   2.5030   2.5030
     5.9181   5.9181   6.0414   6.0415   7.0261   7.0261   7.6873   7.6873
     8.3164   8.3165

          k =-0.2500-0.2500 0.0000 (  5644 PWs)   bands (ev):

   -12.0375 -11.7201 -11.3389 -11.3199 -11.3122 -11.3078 -11.1990 -11.1658
   -11.1481 -11.1400  -9.2878  -8.0564  -8.0220  -6.8412   1.7902   3.9375
     5.0821   5.5257   6.4141   6.5477   6.6397   7.3105   7.5926   7.6908
     8.1406   8.4626

          k =-0.2500-0.2500 0.3722 (  5619 PWs)   bands (ev):

   -11.9181 -11.7073 -11.6720 -11.3993 -11.2635 -11.2417 -11.1954 -11.1827
   -11.1813 -11.1620  -8.9495  -7.8533  -7.3754  -6.7581   1.6761   3.0420
     4.3785   5.4140   5.5583   5.6169   6.1935   7.2401   7.5908   7.8376
     8.1151   8.4311

          k = 0.2500-0.2500 0.0000 (  5644 PWs)   bands (ev):

   -12.0375 -11.7201 -11.3389 -11.3199 -11.3122 -11.3078 -11.1990 -11.1658
   -11.1481 -11.1400  -9.2878  -8.0564  -8.0220  -6.8412   1.7902   3.9375
     5.0821   5.5257   6.4141   6.5477   6.6397   7.3105   7.5926   7.6908
     8.1406   8.4626

          k = 0.2500-0.2500 0.3722 (  5619 PWs)   bands (ev):

   -11.9181 -11.7073 -11.6720 -11.3993 -11.2635 -11.2417 -11.1954 -11.1827
   -11.1813 -11.1620  -8.9495  -7.8533  -7.3754  -6.7581   1.6761   3.0420
     4.3785   5.4140   5.5583   5.6169   6.1935   7.2401   7.5908   7.8376
     8.1151   8.4311

          k = 0.2500 0.2500-0.3722 (  5619 PWs)   bands (ev):

   -11.9181 -11.7073 -11.6720 -11.3993 -11.2635 -11.2417 -11.1954 -11.1827
   -11.1813 -11.1620  -8.9495  -7.8533  -7.3754  -6.7581   1.6761   3.0420
     4.3785   5.4140   5.5583   5.6169   6.1935   7.2401   7.5908   7.8376
     8.1151   8.4311

          k = 0.2500 0.2500 0.0000 (  5644 PWs)   bands (ev):

   -12.0375 -11.7201 -11.3389 -11.3199 -11.3122 -11.3078 -11.1990 -11.1658
   -11.1481 -11.1400  -9.2878  -8.0564  -8.0220  -6.8412   1.7902   3.9375
     5.0821   5.5257   6.4141   6.5477   6.6397   7.3105   7.5926   7.6908
     8.1406   8.4626

          k =-0.2500-0.2500 0.3722 (  5619 PWs)   bands (ev):

   -11.9181 -11.7073 -11.6720 -11.3993 -11.2635 -11.2417 -11.1954 -11.1827
   -11.1813 -11.1620  -8.9495  -7.8533  -7.3754  -6.7581   1.6761   3.0420
     4.3785   5.4140   5.5583   5.6169   6.1935   7.2401   7.5908   7.8376
     8.1151   8.4311

          k =-0.2500-0.2500 0.7445 (  5618 PWs)   bands (ev):

   -12.0979 -11.9549 -11.5470 -11.3216 -11.2351 -11.2324 -11.1677 -11.1654
   -11.1381 -11.1347  -8.3504  -8.0699  -6.7685  -6.5670   1.4858   2.0749
     3.8987   4.4074   4.4641   6.0556   6.3450   7.7137   7.7349   7.7753
     7.8297   7.9584

          k =-0.2500-0.2500-0.3722 (  5619 PWs)   bands (ev):

   -11.9181 -11.7073 -11.6720 -11.3993 -11.2635 -11.2417 -11.1954 -11.1827
   -11.1813 -11.1620  -8.9495  -7.8533  -7.3754  -6.7581   1.6761   3.0420
     4.3785   5.4140   5.5583   5.6169   6.1935   7.2401   7.5908   7.8376
     8.1151   8.4311

          k =-0.2500-0.2500 0.0000 (  5644 PWs)   bands (ev):

   -12.0375 -11.7201 -11.3389 -11.3199 -11.3122 -11.3078 -11.1990 -11.1658
   -11.1481 -11.1400  -9.2878  -8.0564  -8.0220  -6.8412   1.7902   3.9375
     5.0821   5.5257   6.4141   6.5477   6.6397   7.3105   7.5926   7.6908
     8.1406   8.4626

          k = 0.2500-0.2500 0.3722 (  5619 PWs)   bands (ev):

   -11.9181 -11.7073 -11.6720 -11.3993 -11.2635 -11.2417 -11.1954 -11.1827
   -11.1813 -11.1620  -8.9495  -7.8533  -7.3754  -6.7581   1.6761   3.0420
     4.3785   5.4140   5.5583   5.6169   6.1935   7.2401   7.5908   7.8376
     8.1151   8.4311

          k = 0.2500-0.2500 0.7445 (  5618 PWs)   bands (ev):

   -12.0979 -11.9549 -11.5470 -11.3216 -11.2351 -11.2324 -11.1677 -11.1654
   -11.1381 -11.1347  -8.3504  -8.0699  -6.7685  -6.5670   1.4858   2.0749
     3.8987   4.4074   4.4641   6.0556   6.3450   7.7137   7.7349   7.7753
     7.8297   7.9584

          k =-0.2500 0.2500-0.3722 (  5619 PWs)   bands (ev):

   -11.9181 -11.7073 -11.6720 -11.3993 -11.2635 -11.2417 -11.1954 -11.1827
   -11.1813 -11.1620  -8.9495  -7.8533  -7.3754  -6.7581   1.6761   3.0420
     4.3785   5.4140   5.5583   5.6169   6.1935   7.2401   7.5908   7.8376
     8.1151   8.4311

          k =-0.2500 0.2500 0.0000 (  5644 PWs)   bands (ev):

   -12.0375 -11.7201 -11.3389 -11.3199 -11.3122 -11.3078 -11.1990 -11.1658
   -11.1481 -11.1400  -9.2878  -8.0564  -8.0220  -6.8412   1.7902   3.9375
     5.0821   5.5257   6.4141   6.5477   6.6397   7.3105   7.5926   7.6908
     8.1406   8.4626

          k =-0.2500-0.2500-0.7445 (  5618 PWs)   bands (ev):

   -12.0979 -11.9549 -11.5470 -11.3216 -11.2351 -11.2324 -11.1677 -11.1654
   -11.1381 -11.1347  -8.3504  -8.0699  -6.7685  -6.5670   1.4858   2.0749
     3.8987   4.4074   4.4641   6.0556   6.3450   7.7137   7.7349   7.7753
     7.8297   7.9584

          k =-0.2500-0.2500-0.3722 (  5619 PWs)   bands (ev):

   -11.9181 -11.7073 -11.6720 -11.3993 -11.2635 -11.2417 -11.1954 -11.1827
   -11.1813 -11.1620  -8.9495  -7.8533  -7.3754  -6.7581   1.6761   3.0420
     4.3785   5.4140   5.5583   5.6169   6.1935   7.2401   7.5908   7.8376
     8.1151   8.4311

          k = 0.2500-0.2500-0.7445 (  5618 PWs)   bands (ev):

   -12.0979 -11.9549 -11.5470 -11.3216 -11.2351 -11.2324 -11.1677 -11.1654
   -11.1381 -11.1347  -8.3504  -8.0699  -6.7685  -6.5670   1.4858   2.0749
     3.8987   4.4074   4.4641   6.0556   6.3450   7.7137   7.7349   7.7753
     7.8297   7.9584

          k = 0.2500-0.2500-0.3722 (  5619 PWs)   bands (ev):

   -11.9181 -11.7073 -11.6720 -11.3993 -11.2635 -11.2417 -11.1954 -11.1827
   -11.1813 -11.1620  -8.9495  -7.8533  -7.3754  -6.7581   1.6761   3.0420
     4.3785   5.4140   5.5583   5.6169   6.1935   7.2401   7.5908   7.8376
     8.1151   8.4311

          k =-0.2500 0.5000 0.0000 (  5618 PWs)   bands (ev):

   -11.9006 -11.9006 -11.3270 -11.3270 -11.3167 -11.3167 -11.1810 -11.1810
   -11.1437 -11.1437  -8.7233  -8.7233  -7.4108  -7.4108   2.8779   2.8780
     5.6841   5.6841   5.9623   5.9623   7.0423   7.0423   7.6243   7.6243
     8.1879   8.1879

          k =-0.2500 0.5000 0.3722 (  5614 PWs)   bands (ev):

   -11.8370 -11.8370 -11.5315 -11.5315 -11.2534 -11.2534 -11.1885 -11.1885
   -11.1712 -11.1712  -8.4033  -8.4033  -7.0693  -7.0692   2.3004   2.3004
     4.7130   4.7130   5.5675   5.5675   7.0920   7.0920   7.7073   7.7073
     8.2208   8.2209

          k = 0.2500-0.5000-0.3722 (  5614 PWs)   bands (ev):

   -11.8370 -11.8370 -11.5315 -11.5315 -11.2534 -11.2534 -11.1885 -11.1885
   -11.1712 -11.1712  -8.4033  -8.4033  -7.0693  -7.0692   2.3004   2.3004
     4.7130   4.7130   5.5675   5.5675   7.0920   7.0920   7.7073   7.7073
     8.2208   8.2209

          k = 0.2500-0.5000 0.0000 (  5618 PWs)   bands (ev):

   -11.9006 -11.9006 -11.3270 -11.3270 -11.3167 -11.3167 -11.1810 -11.1810
   -11.1437 -11.1437  -8.7233  -8.7233  -7.4108  -7.4108   2.8779   2.8780
     5.6841   5.6841   5.9623   5.9623   7.0423   7.0423   7.6243   7.6243
     8.1879   8.1879

          k =-0.2500 0.5000 0.3722 (  5614 PWs)   bands (ev):

   -11.8370 -11.8370 -11.5315 -11.5315 -11.2534 -11.2534 -11.1885 -11.1885
   -11.1712 -11.1712  -8.4033  -8.4033  -7.0693  -7.0692   2.3004   2.3004
     4.7130   4.7130   5.5675   5.5675   7.0920   7.0920   7.7073   7.7073
     8.2208   8.2209

          k =-0.2500 0.5000 0.7445 (  5604 PWs)   bands (ev):

   -12.0406 -12.0406 -11.4276 -11.4276 -11.2329 -11.2329 -11.1655 -11.1655
   -11.1361 -11.1361  -8.1840  -8.1840  -6.6727  -6.6727   1.5327   1.5327
     4.1982   4.1982   5.0515   5.0515   7.4067   7.4067   7.9052   7.9052
     8.0266   8.0266

          k = 0.5000-0.2500-0.3722 (  5614 PWs)   bands (ev):

   -11.8370 -11.8370 -11.5315 -11.5315 -11.2534 -11.2534 -11.1885 -11.1885
   -11.1712 -11.1712  -8.4033  -8.4033  -7.0693  -7.0692   2.3004   2.3004
     4.7130   4.7130   5.5675   5.5675   7.0920   7.0920   7.7073   7.7073
     8.2208   8.2209

          k = 0.5000-0.2500 0.0000 (  5618 PWs)   bands (ev):

   -11.9006 -11.9006 -11.3270 -11.3270 -11.3167 -11.3167 -11.1810 -11.1810
   -11.1437 -11.1437  -8.7233  -8.7233  -7.4108  -7.4108   2.8779   2.8780
     5.6841   5.6841   5.9623   5.9623   7.0423   7.0423   7.6243   7.6243
     8.1879   8.1879

          k =-0.2500 0.5000-0.7445 (  5604 PWs)   bands (ev):

   -12.0406 -12.0406 -11.4276 -11.4276 -11.2329 -11.2329 -11.1655 -11.1655
   -11.1361 -11.1361  -8.1840  -8.1840  -6.6727  -6.6727   1.5327   1.5327
     4.1982   4.1982   5.0515   5.0515   7.4067   7.4067   7.9052   7.9052
     8.0266   8.0266

          k =-0.2500 0.5000-0.3722 (  5614 PWs)   bands (ev):

   -11.8370 -11.8370 -11.5315 -11.5315 -11.2534 -11.2534 -11.1885 -11.1885
   -11.1712 -11.1712  -8.4033  -8.4033  -7.0693  -7.0692   2.3004   2.3004
     4.7130   4.7130   5.5675   5.5675   7.0920   7.0920   7.7073   7.7073
     8.2208   8.2209

          k =-0.5000-0.5000-0.3722 (  5584 PWs)   bands (ev):

   -11.7262 -11.7262 -11.6753 -11.6753 -11.2527 -11.2527 -11.1894 -11.1894
   -11.1725 -11.1725  -8.0593  -8.0593  -7.4185  -7.4185   2.1830   2.1830
     5.2528   5.2528   5.7905   5.7905   6.2771   6.2771   8.0666   8.0666
     8.1061   8.1061

          k =-0.5000-0.5000 0.0000 (  5660 PWs)   bands (ev):

   -11.9293 -11.9293 -11.3230 -11.3230 -11.3209 -11.3209 -11.1795 -11.1795
   -11.1395 -11.1395  -8.1118  -8.1118  -8.0734  -8.0734   3.3760   3.3760
     5.1949   5.1949   6.0098   6.0098   7.0698   7.0698   7.5579   7.5579
     8.0637   8.0637

     highest occupied level (ev):     8.9050

     Writing output data file 444.save

     Phonon dispersions for SnO2                                                

     bravais-lattice index     =            6
     lattice parameter (alat)  =       9.1370  a.u.
     unit-cell volume          =     512.3005 (a.u.)^3
     number of atoms/cell      =            6
     number of atomic types    =            2
     kinetic-energy cut-off    =      75.0000  Ry
     charge density cut-off    =     300.0000  Ry
     convergence threshold     =      1.0E-14
     beta                      =       0.7000
     number of iterations used =            4
     Exchange-correlation      = PBE ( 1  4  3  4 0 0)


     celldm(1)=    9.13703  celldm(2)=    1.00000  celldm(3)=    0.67160
     celldm(4)=    0.00000  celldm(5)=    0.00000  celldm(6)=    0.00000

     crystal axes: (cart. coord. in units of alat)
               a(1) = (  1.0000  0.0000  0.0000 )  
               a(2) = (  0.0000  1.0000  0.0000 )  
               a(3) = (  0.0000  0.0000  0.6716 )  

     reciprocal axes: (cart. coord. in units 2 pi/alat)
               b(1) = (  1.0000  0.0000  0.0000 )  
               b(2) = (  0.0000  1.0000  0.0000 )  
               b(3) = (  0.0000  0.0000  1.4890 )  


     Atoms inside the unit cell: 

     Cartesian axes

     site n.  atom      mass           positions (alat units)
        1     Sn 118.7100   tau(    1) = (   -0.00033   -0.00033    0.00000  )
        2     Sn 118.7100   tau(    2) = (    0.49967    0.49967    0.33580  )
        3     O   15.9990   tau(    3) = (    0.80637    0.19296    0.33580  )
        4     O   15.9990   tau(    4) = (    0.19296    0.80637    0.33580  )
        5     O   15.9990   tau(    5) = (    0.30637    0.30637    0.00000  )
        6     O   15.9990   tau(    6) = (    0.69296    0.69296    0.00000  )

     Computing dynamical matrix for 
                    q = (   0.0000000   0.0000000   0.3722466 )
 
      2 Sym.Ops. (no q -> -q+G )


     G cutoff =  634.4127  (   5619 G-vectors)     FFT grid: ( 54, 54, 36)
     number of k points=    80

     PseudoPot. # 1 for Sn read from file:
     ../../../Pseudo_potentials/Sn_PBE.upf
     MD5 check sum: 78e6386ae56e929f0568ae8bf606a80c
     Pseudo is Norm-conserving + core correction, Zval = 14.0
     Generated using ONCVPSP code by D. R. Hamann
     Using radial grid of 1628 points,  6 beta functions with: 
                l(1) =   0
                l(2) =   0
                l(3) =   1
                l(4) =   1
                l(5) =   2
                l(6) =   2

     PseudoPot. # 2 for O  read from file:
     ../../../Pseudo_potentials/O_PBE.upf
     MD5 check sum: 3e3f909f7470e8921608ab6b1f57bbae
     Pseudo is Norm-conserving + core correction, Zval =  6.0
     Generated using ONCVPSP code by D. R. Hamann
     Using radial grid of  936 points,  5 beta functions with: 
                l(1) =   0
                l(2) =   0
                l(3) =   1
                l(4) =   1
                l(5) =   2

     Mode symmetry, C_s (m)     point group:


     Atomic displacements:
     There are  18 irreducible representations

     Representation     1      1 modes -A'  To be done

     Representation     2      1 modes -A'  To be done

     Representation     3      1 modes -A'  To be done

     Representation     4      1 modes -A'  To be done

     Representation     5      1 modes -A'  To be done

     Representation     6      1 modes -A'  To be done

     Representation     7      1 modes -A'  To be done

     Representation     8      1 modes -A'  To be done

     Representation     9      1 modes -A'  To be done

     Representation    10      1 modes -A'  To be done

     Representation    11      1 modes -A'  To be done

     Representation    12      1 modes -A''  To be done

     Representation    13      1 modes -A''  To be done

     Representation    14      1 modes -A''  To be done

     Representation    15      1 modes -A''  To be done

     Representation    16      1 modes -A''  To be done

     Representation    17      1 modes -A''  To be done

     Representation    18      1 modes -A''  To be done



     Alpha used in Ewald sum =   2.7000
     PHONON       : 19m37.30s CPU    20m45.88s WALL



     Representation #  1 mode #   1

     Self-consistent Calculation

      iter #   1 total cpu time :  1254.0 secs   av.it.:   7.8
      thresh= 1.000E-02 alpha_mix =  0.700 |ddv_scf|^2 =  8.882E-05

      iter #   2 total cpu time :  1266.2 secs   av.it.:  11.8
      thresh= 9.425E-04 alpha_mix =  0.700 |ddv_scf|^2 =  3.867E-04

      iter #   3 total cpu time :  1276.9 secs   av.it.:   9.8
      thresh= 1.966E-03 alpha_mix =  0.700 |ddv_scf|^2 =  5.233E-07

      iter #   4 total cpu time :  1292.9 secs   av.it.:  12.8
      thresh= 7.234E-05 alpha_mix =  0.700 |ddv_scf|^2 =  1.785E-07

      iter #   5 total cpu time :  1304.6 secs   av.it.:  11.6
      thresh= 4.225E-05 alpha_mix =  0.700 |ddv_scf|^2 =  2.802E-09

      iter #   6 total cpu time :  1317.6 secs   av.it.:  12.7
      thresh= 5.293E-06 alpha_mix =  0.700 |ddv_scf|^2 =  5.263E-10

      iter #   7 total cpu time :  1331.0 secs   av.it.:  12.6
      thresh= 2.294E-06 alpha_mix =  0.700 |ddv_scf|^2 =  1.241E-10

      iter #   8 total cpu time :  1343.5 secs   av.it.:  11.8
      thresh= 1.114E-06 alpha_mix =  0.700 |ddv_scf|^2 =  1.149E-12

      iter #   9 total cpu time :  1357.3 secs   av.it.:  13.7
      thresh= 1.072E-07 alpha_mix =  0.700 |ddv_scf|^2 =  1.228E-12

      iter #  10 total cpu time :  1371.1 secs   av.it.:  12.6
      thresh= 1.108E-07 alpha_mix =  0.700 |ddv_scf|^2 =  1.906E-13

      iter #  11 total cpu time :  1384.5 secs   av.it.:  12.7
      thresh= 4.366E-08 alpha_mix =  0.700 |ddv_scf|^2 =  3.482E-14

      iter #  12 total cpu time :  1397.1 secs   av.it.:  12.3
      thresh= 1.866E-08 alpha_mix =  0.700 |ddv_scf|^2 =  1.428E-14

      iter #  13 total cpu time :  1410.0 secs   av.it.:  12.9
      thresh= 1.195E-08 alpha_mix =  0.700 |ddv_scf|^2 =  2.204E-14

      iter #  14 total cpu time :  1422.5 secs   av.it.:  11.5
      thresh= 1.485E-08 alpha_mix =  0.700 |ddv_scf|^2 =  1.045E-16

     End of self-consistent calculation

     Convergence has been achieved 


     Representation #  2 mode #   2

     Self-consistent Calculation

      iter #   1 total cpu time :  1433.7 secs   av.it.:   8.7
      thresh= 1.000E-02 alpha_mix =  0.700 |ddv_scf|^2 =  2.356E-04

      iter #   2 total cpu time :  1446.6 secs   av.it.:  12.1
      thresh= 1.535E-03 alpha_mix =  0.700 |ddv_scf|^2 =  1.080E-03

      iter #   3 total cpu time :  1457.4 secs   av.it.:  10.3
      thresh= 3.286E-03 alpha_mix =  0.700 |ddv_scf|^2 =  1.625E-06

      iter #   4 total cpu time :  1471.3 secs   av.it.:  12.6
      thresh= 1.275E-04 alpha_mix =  0.700 |ddv_scf|^2 =  8.411E-08

      iter #   5 total cpu time :  1485.0 secs   av.it.:  12.6
      thresh= 2.900E-05 alpha_mix =  0.700 |ddv_scf|^2 =  2.249E-08

      iter #   6 total cpu time :  1497.7 secs   av.it.:  12.2
      thresh= 1.500E-05 alpha_mix =  0.700 |ddv_scf|^2 =  4.557E-09

      iter #   7 total cpu time :  1509.1 secs   av.it.:  11.9
      thresh= 6.750E-06 alpha_mix =  0.700 |ddv_scf|^2 =  1.126E-10

      iter #   8 total cpu time :  1523.0 secs   av.it.:  12.7
      thresh= 1.061E-06 alpha_mix =  0.700 |ddv_scf|^2 =  1.402E-11

      iter #   9 total cpu time :  1535.6 secs   av.it.:  13.0
      thresh= 3.745E-07 alpha_mix =  0.700 |ddv_scf|^2 =  2.853E-12
[...]
      thresh= 7.410E-05 alpha_mix =  0.700 |ddv_scf|^2 =  1.417E-08

      iter #   4 total cpu time : 60142.6 secs   av.it.:  12.2
      thresh= 1.190E-05 alpha_mix =  0.700 |ddv_scf|^2 =  1.728E-10

      iter #   5 total cpu time : 60149.6 secs   av.it.:  12.5
      thresh= 1.315E-06 alpha_mix =  0.700 |ddv_scf|^2 =  3.346E-12

      iter #   6 total cpu time : 60157.0 secs   av.it.:  12.5
      thresh= 1.829E-07 alpha_mix =  0.700 |ddv_scf|^2 =  8.649E-14

      iter #   7 total cpu time : 60163.1 secs   av.it.:  12.0
      thresh= 2.941E-08 alpha_mix =  0.700 |ddv_scf|^2 =  7.463E-15

     End of self-consistent calculation

     Convergence has been achieved 


     Representation # 10 mode #  10

     Self-consistent Calculation

      iter #   1 total cpu time : 60170.0 secs   av.it.:   7.0
      thresh= 1.000E-02 alpha_mix =  0.700 |ddv_scf|^2 =  5.760E-06

      iter #   2 total cpu time : 60177.3 secs   av.it.:  12.1
      thresh= 2.400E-04 alpha_mix =  0.700 |ddv_scf|^2 =  2.135E-06

      iter #   3 total cpu time : 60184.8 secs   av.it.:  11.4
      thresh= 1.461E-04 alpha_mix =  0.700 |ddv_scf|^2 =  5.037E-09

      iter #   4 total cpu time : 60191.2 secs   av.it.:  12.0
      thresh= 7.097E-06 alpha_mix =  0.700 |ddv_scf|^2 =  1.813E-10

      iter #   5 total cpu time : 60198.0 secs   av.it.:  12.0
      thresh= 1.347E-06 alpha_mix =  0.700 |ddv_scf|^2 =  2.606E-12

      iter #   6 total cpu time : 60205.1 secs   av.it.:  12.1
      thresh= 1.614E-07 alpha_mix =  0.700 |ddv_scf|^2 =  4.775E-14

      iter #   7 total cpu time : 60212.2 secs   av.it.:  11.5
      thresh= 2.185E-08 alpha_mix =  0.700 |ddv_scf|^2 =  3.779E-15

     End of self-consistent calculation

     Convergence has been achieved 


     Representation # 11 mode #  11

     Self-consistent Calculation

      iter #   1 total cpu time : 60217.8 secs   av.it.:   6.7
      thresh= 1.000E-02 alpha_mix =  0.700 |ddv_scf|^2 =  2.842E-06

      iter #   2 total cpu time : 60225.0 secs   av.it.:  12.4
      thresh= 1.686E-04 alpha_mix =  0.700 |ddv_scf|^2 =  5.491E-07

      iter #   3 total cpu time : 60232.1 secs   av.it.:  11.9
      thresh= 7.410E-05 alpha_mix =  0.700 |ddv_scf|^2 =  1.417E-08

      iter #   4 total cpu time : 60238.8 secs   av.it.:  12.2
      thresh= 1.190E-05 alpha_mix =  0.700 |ddv_scf|^2 =  1.728E-10

      iter #   5 total cpu time : 60245.6 secs   av.it.:  12.5
      thresh= 1.315E-06 alpha_mix =  0.700 |ddv_scf|^2 =  3.347E-12

      iter #   6 total cpu time : 60253.1 secs   av.it.:  12.5
      thresh= 1.829E-07 alpha_mix =  0.700 |ddv_scf|^2 =  8.651E-14

      iter #   7 total cpu time : 60260.4 secs   av.it.:  12.0
      thresh= 2.941E-08 alpha_mix =  0.700 |ddv_scf|^2 =  7.465E-15

     End of self-consistent calculation

     Convergence has been achieved 


     Representation # 12 mode #  12

     Self-consistent Calculation

      iter #   1 total cpu time : 60265.3 secs   av.it.:   7.6
      thresh= 1.000E-02 alpha_mix =  0.700 |ddv_scf|^2 =  1.629E-05

      iter #   2 total cpu time : 60273.3 secs   av.it.:  12.2
      thresh= 4.037E-04 alpha_mix =  0.700 |ddv_scf|^2 =  8.683E-06

      iter #   3 total cpu time : 60280.2 secs   av.it.:  11.4
      thresh= 2.947E-04 alpha_mix =  0.700 |ddv_scf|^2 =  2.997E-09

      iter #   4 total cpu time : 60287.1 secs   av.it.:  12.0
      thresh= 5.474E-06 alpha_mix =  0.700 |ddv_scf|^2 =  2.815E-10

      iter #   5 total cpu time : 60293.5 secs   av.it.:  12.1
      thresh= 1.678E-06 alpha_mix =  0.700 |ddv_scf|^2 =  8.651E-12

      iter #   6 total cpu time : 60301.1 secs   av.it.:  11.8
      thresh= 2.941E-07 alpha_mix =  0.700 |ddv_scf|^2 =  6.249E-14

      iter #   7 total cpu time : 60307.8 secs   av.it.:  11.6
      thresh= 2.500E-08 alpha_mix =  0.700 |ddv_scf|^2 =  4.187E-15

     End of self-consistent calculation

     Convergence has been achieved 


     Representation # 13 mode #  13

     Self-consistent Calculation

      iter #   1 total cpu time : 60313.5 secs   av.it.:   8.1
      thresh= 1.000E-02 alpha_mix =  0.700 |ddv_scf|^2 =  3.152E-05

      iter #   2 total cpu time : 60321.5 secs   av.it.:  12.4
      thresh= 5.614E-04 alpha_mix =  0.700 |ddv_scf|^2 =  3.733E-05

      iter #   3 total cpu time : 60329.4 secs   av.it.:  11.4
      thresh= 6.110E-04 alpha_mix =  0.700 |ddv_scf|^2 =  1.584E-06

      iter #   4 total cpu time : 60337.0 secs   av.it.:  11.3
      thresh= 1.259E-04 alpha_mix =  0.700 |ddv_scf|^2 =  1.889E-08

      iter #   5 total cpu time : 60342.9 secs   av.it.:  11.3
      thresh= 1.375E-05 alpha_mix =  0.700 |ddv_scf|^2 =  4.712E-10

      iter #   6 total cpu time : 60349.1 secs   av.it.:  12.2
      thresh= 2.171E-06 alpha_mix =  0.700 |ddv_scf|^2 =  7.664E-11

      iter #   7 total cpu time : 60357.0 secs   av.it.:  11.2
      thresh= 8.755E-07 alpha_mix =  0.700 |ddv_scf|^2 =  8.566E-13

      iter #   8 total cpu time : 60365.2 secs   av.it.:  12.0
      thresh= 9.255E-08 alpha_mix =  0.700 |ddv_scf|^2 =  9.113E-15

     End of self-consistent calculation

     Convergence has been achieved 


     Representation # 14 mode #  14

     Self-consistent Calculation

      iter #   1 total cpu time : 60371.6 secs   av.it.:   7.1
      thresh= 1.000E-02 alpha_mix =  0.700 |ddv_scf|^2 =  6.683E-06

      iter #   2 total cpu time : 60379.5 secs   av.it.:  12.6
      thresh= 2.585E-04 alpha_mix =  0.700 |ddv_scf|^2 =  3.080E-06

      iter #   3 total cpu time : 60387.2 secs   av.it.:  12.0
      thresh= 1.755E-04 alpha_mix =  0.700 |ddv_scf|^2 =  5.911E-08

      iter #   4 total cpu time : 60394.7 secs   av.it.:  12.2
      thresh= 2.431E-05 alpha_mix =  0.700 |ddv_scf|^2 =  1.607E-08

      iter #   5 total cpu time : 60401.5 secs   av.it.:  11.5
      thresh= 1.268E-05 alpha_mix =  0.700 |ddv_scf|^2 =  4.011E-10

      iter #   6 total cpu time : 60408.3 secs   av.it.:  12.4
      thresh= 2.003E-06 alpha_mix =  0.700 |ddv_scf|^2 =  2.973E-11

      iter #   7 total cpu time : 60415.6 secs   av.it.:  12.5
      thresh= 5.453E-07 alpha_mix =  0.700 |ddv_scf|^2 =  1.617E-12

      iter #   8 total cpu time : 60423.5 secs   av.it.:  13.0
      thresh= 1.271E-07 alpha_mix =  0.700 |ddv_scf|^2 =  3.541E-13

      iter #   9 total cpu time : 60430.9 secs   av.it.:  12.3
      thresh= 5.950E-08 alpha_mix =  0.700 |ddv_scf|^2 =  2.995E-14

      iter #  10 total cpu time : 60437.2 secs   av.it.:  12.4
      thresh= 1.731E-08 alpha_mix =  0.700 |ddv_scf|^2 =  5.720E-16

     End of self-consistent calculation

     Convergence has been achieved 


     Representation # 15 mode #  15

     Self-consistent Calculation

      iter #   1 total cpu time : 60442.0 secs   av.it.:   6.8
      thresh= 1.000E-02 alpha_mix =  0.700 |ddv_scf|^2 =  4.575E-06

      iter #   2 total cpu time : 60448.7 secs   av.it.:  12.2
      thresh= 2.139E-04 alpha_mix =  0.700 |ddv_scf|^2 =  1.098E-06

      iter #   3 total cpu time : 60457.1 secs   av.it.:  11.9
      thresh= 1.048E-04 alpha_mix =  0.700 |ddv_scf|^2 =  1.655E-08

      iter #   4 total cpu time : 60464.9 secs   av.it.:  12.5
      thresh= 1.287E-05 alpha_mix =  0.700 |ddv_scf|^2 =  1.797E-09

      iter #   5 total cpu time : 60473.1 secs   av.it.:  11.8
      thresh= 4.239E-06 alpha_mix =  0.700 |ddv_scf|^2 =  3.301E-10

      iter #   6 total cpu time : 60480.4 secs   av.it.:  12.3
      thresh= 1.817E-06 alpha_mix =  0.700 |ddv_scf|^2 =  3.778E-12

      iter #   7 total cpu time : 60488.7 secs   av.it.:  12.7
      thresh= 1.944E-07 alpha_mix =  0.700 |ddv_scf|^2 =  1.198E-12

      iter #   8 total cpu time : 60495.6 secs   av.it.:  12.4
      thresh= 1.095E-07 alpha_mix =  0.700 |ddv_scf|^2 =  1.242E-14

      iter #   9 total cpu time : 60502.8 secs   av.it.:  12.5
      thresh= 1.114E-08 alpha_mix =  0.700 |ddv_scf|^2 =  1.562E-15

     End of self-consistent calculation

     Convergence has been achieved 


     Representation # 16 mode #  16

     Self-consistent Calculation

      iter #   1 total cpu time : 60509.1 secs   av.it.:   7.1
      thresh= 1.000E-02 alpha_mix =  0.700 |ddv_scf|^2 =  6.935E-06

      iter #   2 total cpu time : 60517.4 secs   av.it.:  12.4
      thresh= 2.634E-04 alpha_mix =  0.700 |ddv_scf|^2 =  4.783E-06

      iter #   3 total cpu time : 60525.6 secs   av.it.:  11.6
      thresh= 2.187E-04 alpha_mix =  0.700 |ddv_scf|^2 =  1.642E-07

      iter #   4 total cpu time : 60532.9 secs   av.it.:  11.3
      thresh= 4.052E-05 alpha_mix =  0.700 |ddv_scf|^2 =  2.468E-08

      iter #   5 total cpu time : 60538.9 secs   av.it.:  11.3
      thresh= 1.571E-05 alpha_mix =  0.700 |ddv_scf|^2 =  9.060E-11

      iter #   6 total cpu time : 60545.5 secs   av.it.:  12.4
      thresh= 9.518E-07 alpha_mix =  0.700 |ddv_scf|^2 =  5.257E-12

      iter #   7 total cpu time : 60553.7 secs   av.it.:  12.9
      thresh= 2.293E-07 alpha_mix =  0.700 |ddv_scf|^2 =  6.122E-13

      iter #   8 total cpu time : 60561.9 secs   av.it.:  12.6
      thresh= 7.825E-08 alpha_mix =  0.700 |ddv_scf|^2 =  1.430E-14

      iter #   9 total cpu time : 60568.8 secs   av.it.:  12.5
      thresh= 1.196E-08 alpha_mix =  0.700 |ddv_scf|^2 =  3.848E-15

     End of self-consistent calculation

     Convergence has been achieved 


     Representation # 17 mode #  17

     Self-consistent Calculation

      iter #   1 total cpu time : 60575.4 secs   av.it.:   7.6
      thresh= 1.000E-02 alpha_mix =  0.700 |ddv_scf|^2 =  1.629E-05

      iter #   2 total cpu time : 60583.5 secs   av.it.:  12.2
      thresh= 4.037E-04 alpha_mix =  0.700 |ddv_scf|^2 =  8.682E-06

      iter #   3 total cpu time : 60590.0 secs   av.it.:  11.4
      thresh= 2.947E-04 alpha_mix =  0.700 |ddv_scf|^2 =  2.996E-09

      iter #   4 total cpu time : 60597.3 secs   av.it.:  12.1
      thresh= 5.473E-06 alpha_mix =  0.700 |ddv_scf|^2 =  2.815E-10

      iter #   5 total cpu time : 60604.0 secs   av.it.:  12.2
      thresh= 1.678E-06 alpha_mix =  0.700 |ddv_scf|^2 =  8.711E-12

      iter #   6 total cpu time : 60610.4 secs   av.it.:  12.4
      thresh= 2.951E-07 alpha_mix =  0.700 |ddv_scf|^2 =  4.037E-13

      iter #   7 total cpu time : 60617.6 secs   av.it.:  12.6
      thresh= 6.354E-08 alpha_mix =  0.700 |ddv_scf|^2 =  8.289E-13

      iter #   8 total cpu time : 60624.8 secs   av.it.:  11.3
      thresh= 9.104E-08 alpha_mix =  0.700 |ddv_scf|^2 =  3.731E-15

     End of self-consistent calculation

     Convergence has been achieved 


     Representation # 18 mode #  18

     Self-consistent Calculation

      iter #   1 total cpu time : 60631.3 secs   av.it.:   7.1
      thresh= 1.000E-02 alpha_mix =  0.700 |ddv_scf|^2 =  6.683E-06

      iter #   2 total cpu time : 60639.4 secs   av.it.:  12.6
      thresh= 2.585E-04 alpha_mix =  0.700 |ddv_scf|^2 =  3.080E-06

      iter #   3 total cpu time : 60646.8 secs   av.it.:  12.0
      thresh= 1.755E-04 alpha_mix =  0.700 |ddv_scf|^2 =  5.911E-08

      iter #   4 total cpu time : 60653.3 secs   av.it.:  12.2
      thresh= 2.431E-05 alpha_mix =  0.700 |ddv_scf|^2 =  1.607E-08

      iter #   5 total cpu time : 60661.1 secs   av.it.:  11.5
      thresh= 1.268E-05 alpha_mix =  0.700 |ddv_scf|^2 =  4.011E-10

      iter #   6 total cpu time : 60667.6 secs   av.it.:  12.4
      thresh= 2.003E-06 alpha_mix =  0.700 |ddv_scf|^2 =  2.974E-11

      iter #   7 total cpu time : 60675.0 secs   av.it.:  12.5
      thresh= 5.453E-07 alpha_mix =  0.700 |ddv_scf|^2 =  1.617E-12

      iter #   8 total cpu time : 60683.3 secs   av.it.:  13.0
      thresh= 1.272E-07 alpha_mix =  0.700 |ddv_scf|^2 =  3.542E-13

      iter #   9 total cpu time : 60691.4 secs   av.it.:  12.3
      thresh= 5.951E-08 alpha_mix =  0.700 |ddv_scf|^2 =  2.996E-14

      iter #  10 total cpu time : 60698.6 secs   av.it.:  12.4
      thresh= 1.731E-08 alpha_mix =  0.700 |ddv_scf|^2 =  5.716E-16

     End of self-consistent calculation

     Convergence has been achieved 
 
     Number of q in the star =    1
     List of q in the star:
          1  -0.500000000  -0.500000000  -0.744493277

     Diagonalizing the dynamical matrix

     q = (   -0.500000000  -0.500000000  -0.744493277 ) 

 **************************************************************************
     freq (    1) =       2.945578 [THz] =      98.253911 [cm-1]
     freq (    2) =       2.954468 [THz] =      98.550450 [cm-1]
     freq (    3) =       5.645930 [THz] =     188.327942 [cm-1]
     freq (    4) =       5.649402 [THz] =     188.443755 [cm-1]
     freq (    5) =       6.243843 [THz] =     208.272181 [cm-1]
     freq (    6) =       6.265843 [THz] =     209.006015 [cm-1]
     freq (    7) =       7.070401 [THz] =     235.843188 [cm-1]
     freq (    8) =       7.094782 [THz] =     236.656462 [cm-1]
     freq (    9) =       8.706860 [THz] =     290.429591 [cm-1]
     freq (   10) =       8.710193 [THz] =     290.540770 [cm-1]
     freq (   11) =      14.755975 [THz] =     492.206344 [cm-1]
     freq (   12) =      14.757345 [THz] =     492.252036 [cm-1]
     freq (   13) =      15.639116 [THz] =     521.664752 [cm-1]
     freq (   14) =      15.639736 [THz] =     521.685434 [cm-1]
     freq (   15) =      16.011818 [THz] =     534.096775 [cm-1]
     freq (   16) =      16.012558 [THz] =     534.121437 [cm-1]
     freq (   17) =      20.052205 [THz] =     668.869563 [cm-1]
     freq (   18) =      20.061538 [THz] =     669.180873 [cm-1]
 **************************************************************************

     Mode symmetry, C_2v (mm2)  point group:

     freq (  1 -  1) =         98.3  [cm-1]   --> B_1  D_3  S_3      
     freq (  2 -  2) =         98.6  [cm-1]   --> B_2  D_4  S_4      
     freq (  3 -  3) =        188.3  [cm-1]   --> A_1  D_1  S_1      
     freq (  4 -  4) =        188.4  [cm-1]   --> A_2  D_2  S_2      
     freq (  5 -  5) =        208.3  [cm-1]   --> A_2  D_2  S_2      
     freq (  6 -  6) =        209.0  [cm-1]   --> B_1  D_3  S_3      
     freq (  7 -  7) =        235.8  [cm-1]   --> B_2  D_4  S_4      
     freq (  8 -  8) =        236.7  [cm-1]   --> B_1  D_3  S_3      
     freq (  9 -  9) =        290.4  [cm-1]   --> B_2  D_4  S_4      
     freq ( 10 - 10) =        290.5  [cm-1]   --> A_1  D_1  S_1      
     freq ( 11 - 11) =        492.2  [cm-1]   --> A_1  D_1  S_1      
     freq ( 12 - 12) =        492.3  [cm-1]   --> B_2  D_4  S_4      
     freq ( 13 - 13) =        521.7  [cm-1]   --> A_1  D_1  S_1      
     freq ( 14 - 14) =        521.7  [cm-1]   --> A_2  D_2  S_2      
     freq ( 15 - 15) =        534.1  [cm-1]   --> B_1  D_3  S_3      
     freq ( 16 - 16) =        534.1  [cm-1]   --> B_2  D_4  S_4      
     freq ( 17 - 17) =        668.9  [cm-1]   --> A_1  D_1  S_1      
     freq ( 18 - 18) =        669.2  [cm-1]   --> B_2  D_4  S_4      
 
     init_run     :     10.74s CPU     13.20s WALL (      20 calls)
     electrons    :    446.50s CPU    458.88s WALL (      20 calls)

     Called by init_run:
     wfcinit      :      0.01s CPU      0.03s WALL (      20 calls)
     potinit      :      2.98s CPU      3.87s WALL (      20 calls)
     hinit0       :      4.47s CPU      5.05s WALL (      20 calls)

     Called by electrons:
     c_bands      :    446.48s CPU    458.82s WALL (      20 calls)
     v_of_rho     :      1.87s CPU      2.02s WALL (      21 calls)

     Called by c_bands:
     init_us_2    :     84.12s CPU     86.62s WALL (  187501 calls)
     cegterg      :    395.11s CPU    397.43s WALL (    1694 calls)

     Called by sum_band:

     Called by *egterg:
     h_psi        :  41527.76s CPU  42749.38s WALL ( 3131322 calls)
     g_psi        :      3.33s CPU      3.30s WALL (   20422 calls)
     cdiaghg      :     50.40s CPU     50.41s WALL (   22116 calls)

     Called by h_psi:
     h_psi:pot    :  41405.19s CPU  42624.32s WALL ( 3131322 calls)
     h_psi:calbec :   2507.70s CPU   2540.05s WALL ( 3131322 calls)
     vloc_psi     :  37005.13s CPU  38177.08s WALL ( 3131322 calls)
     add_vuspsi   :   1882.29s CPU   1895.13s WALL ( 3131322 calls)

     General routines
     calbec       :   4970.79s CPU   5105.02s WALL ( 6310073 calls)
     fft          :    251.25s CPU    350.50s WALL (   61686 calls)
     ffts         :     31.87s CPU     43.46s WALL (   22806 calls)
     fftw         :  43359.27s CPU  45575.57s WALL (******** calls)
     davcio       :     11.02s CPU    298.49s WALL (  880423 calls)
 
     Parallel routines
     fft_scatt_xy :   2768.72s CPU   2841.48s WALL (******** calls)
     fft_scatt_yz :  15470.87s CPU  17201.21s WALL (******** calls)
 
     PHONON       :    15h52m CPU       16h51m WALL

     INITIALIZATION: 
     phq_setup    :      7.71s CPU      9.75s WALL (      21 calls)
     phq_init     :     33.13s CPU     39.48s WALL (      21 calls)
 
     phq_init     :     33.13s CPU     39.48s WALL (      21 calls)
     set_drhoc    :      5.94s CPU      7.00s WALL (      63 calls)
     init_vloc    :      0.55s CPU      0.69s WALL (      21 calls)
     init_us_1    :      1.68s CPU      1.94s WALL (      21 calls)
 
     DYNAMICAL MATRIX:
     dynmat0      :     13.91s CPU     14.21s WALL (      21 calls)
     phqscf       :  56453.86s CPU  59917.19s WALL (      21 calls)
     dynmatrix    :      1.23s CPU      2.61s WALL (      21 calls)
 
     phqscf       :  56453.86s CPU  59917.19s WALL (      21 calls)
     solve_linter :  56053.65s CPU  59424.93s WALL (     378 calls)
     drhodv       :    398.38s CPU    476.52s WALL (     378 calls)
 
     dynmat0      :     13.91s CPU     14.21s WALL (      21 calls)
     dynmat_us    :      9.44s CPU      9.52s WALL (      21 calls)
     d2ionq       :      0.23s CPU      0.23s WALL (      21 calls)
     dynmatcc     :      4.19s CPU      4.20s WALL (      21 calls)
 
     dynmat_us    :      9.44s CPU      9.52s WALL (      21 calls)
 
     phqscf       :  56453.86s CPU  59917.19s WALL (      21 calls)
     solve_linter :  56053.65s CPU  59424.93s WALL (     378 calls)
 
     solve_linter :  56053.65s CPU  59424.93s WALL (     378 calls)
     dvqpsi_us    :    549.02s CPU    636.83s WALL (   16002 calls)
     ortho        :    125.80s CPU    128.72s WALL (  168447 calls)
     cgsolve      :  46118.02s CPU  47407.37s WALL (  168447 calls)
     incdrhoscf   :   3061.42s CPU   3109.22s WALL (  168384 calls)
     vpsifft      :   5306.63s CPU   6276.25s WALL (  152256 calls)
     dv_of_drho   :     25.47s CPU     25.70s WALL (    3935 calls)
     mix_pot      :    315.03s CPU    644.15s WALL (    3919 calls)
     psymdvscf    :     52.24s CPU     52.39s WALL (    3050 calls)
 
     dvqpsi_us    :    549.02s CPU    636.83s WALL (   16002 calls)
     dvqpsi_us_on :     37.01s CPU     37.12s WALL (   16002 calls)
 
     cgsolve      :  46118.02s CPU  47407.37s WALL (  168447 calls)
     ch_psi       :  45236.78s CPU  46516.64s WALL ( 3107512 calls)
 
     ch_psi       :  45236.78s CPU  46516.64s WALL ( 3107512 calls)
     h_psi        :  41527.76s CPU  42749.38s WALL ( 3131322 calls)
     last         :   3815.26s CPU   3871.48s WALL ( 3107512 calls)
 
     h_psi        :  41527.76s CPU  42749.38s WALL ( 3131322 calls)
     add_vuspsi   :   1882.29s CPU   1895.13s WALL ( 3131322 calls)
 
     incdrhoscf   :   3061.42s CPU   3109.22s WALL (  168384 calls)
 
 
      General routines
     calbec       :   4970.79s CPU   5105.02s WALL ( 6310073 calls)
     fft          :    251.25s CPU    350.50s WALL (   61686 calls)
     ffts         :     31.87s CPU     43.46s WALL (   22806 calls)
     fftw         :  43359.27s CPU  45575.57s WALL (******** calls)
     davcio       :     11.02s CPU    298.49s WALL (  880423 calls)
     write_rec    :    188.39s CPU    394.81s WALL (    4297 calls)
 
 
     PHONON       :    15h52m CPU       16h51m WALL

 
   This run was terminated on:  17:55:22   5May2018            

=------------------------------------------------------------------------------=
   JOB DONE.
=------------------------------------------------------------------------------=
