
     Program PWSCF v.6.2.2 starts on  5May2018 at  0:53: 9 

     This program is part of the open-source Quantum ESPRESSO suite
     for quantum simulation of materials; please cite
         "P. Giannozzi et al., J. Phys.:Condens. Matter 21 395502 (2009);
         "P. Giannozzi et al., J. Phys.:Condens. Matter 29 465901 (2017);
          URL http://www.quantum-espresso.org", 
     in publications or presentations arising from this work. More details at
     http://www.quantum-espresso.org/quote

     Parallel version (MPI), running on     2 processors

     MPI processes distributed on     1 nodes
     R & G space division:  proc/nbgrp/npool/nimage =       2
     Waiting for input...
     Reading input from standard input
Warning: card  &IONS ignored
Warning: card  / ignored
Warning: card  &CELL ignored
Warning: card  / ignored

     Current dimensions of program PWSCF are:
     Max number of different atomic species (ntypx) = 10
     Max number of k-points (npk) =  40000
     Max angular momentum in pseudopotentials (lmaxx) =  3

     Subspace diagonalization in iterative solution of the eigenvalue problem:
     a serial algorithm will be used

 
     Parallelization info
     --------------------
     sticks:   dense  smooth     PW     G-vecs:    dense   smooth      PW
     Min        1000    1000    296                22472    22472    3577
     Max        1001    1001    297                22473    22473    3578
     Sum        2001    2001    593                44945    44945    7155
 


     bravais-lattice index     =            6
     lattice parameter (alat)  =       9.1370  a.u.
     unit-cell volume          =     512.3005 (a.u.)^3
     number of atoms/cell      =            6
     number of atomic types    =            2
     number of electrons       =        52.00
     number of Kohn-Sham states=           26
     kinetic-energy cutoff     =      75.0000  Ry
     charge density cutoff     =     300.0000  Ry
     convergence threshold     =      1.0E-20
     mixing beta               =       0.7000
     number of iterations used =            8  plain     mixing
     Exchange-correlation      = PBE ( 1  4  3  4 0 0)

     celldm(1)=   9.137033  celldm(2)=   0.000000  celldm(3)=   0.671598
     celldm(4)=   0.000000  celldm(5)=   0.000000  celldm(6)=   0.000000

     crystal axes: (cart. coord. in units of alat)
               a(1) = (   1.000000   0.000000   0.000000 )  
               a(2) = (   0.000000   1.000000   0.000000 )  
               a(3) = (   0.000000   0.000000   0.671598 )  

     reciprocal axes: (cart. coord. in units 2 pi/alat)
               b(1) = (  1.000000  0.000000  0.000000 )  
               b(2) = (  0.000000  1.000000  0.000000 )  
               b(3) = (  0.000000  0.000000  1.488987 )  


     PseudoPot. # 1 for Sn read from file:
     ../../../Pseudo_potentials/Sn_PBE.upf
     MD5 check sum: 78e6386ae56e929f0568ae8bf606a80c
     Pseudo is Norm-conserving + core correction, Zval = 14.0
     Generated using ONCVPSP code by D. R. Hamann
     Using radial grid of 1628 points,  6 beta functions with: 
                l(1) =   0
                l(2) =   0
                l(3) =   1
                l(4) =   1
                l(5) =   2
                l(6) =   2

     PseudoPot. # 2 for O  read from file:
     ../../../Pseudo_potentials/O_PBE.upf
     MD5 check sum: 3e3f909f7470e8921608ab6b1f57bbae
     Pseudo is Norm-conserving + core correction, Zval =  6.0
     Generated using ONCVPSP code by D. R. Hamann
     Using radial grid of  936 points,  5 beta functions with: 
                l(1) =   0
                l(2) =   0
                l(3) =   1
                l(4) =   1
                l(5) =   2

     atomic species   valence    mass     pseudopotential
        Sn            14.00   118.71000     Sn( 1.00)
        O              6.00    15.99900     O ( 1.00)

      4 Sym. Ops. (no inversion) found



   Cartesian axes

     site n.     atom                  positions (alat units)
         1           Sn  tau(   1) = (  -0.0003320  -0.0003320   0.0000000  )
         2           Sn  tau(   2) = (   0.4996675   0.4996675   0.3357989  )
         3           O   tau(   3) = (   0.8063692   0.1929618   0.3357989  )
         4           O   tau(   4) = (   0.1929618   0.8063692   0.3357989  )
         5           O   tau(   5) = (   0.3063705   0.3063705   0.0000000  )
         6           O   tau(   6) = (   0.6929630   0.6929630   0.0000000  )

     number of k points=    21
                       cart. coord. in units 2pi/alat
        k(    1) = (   0.0000000   0.0000000   0.0000000), wk =   0.0312500
        k(    2) = (   0.0000000   0.0000000   0.3722466), wk =   0.0625000
        k(    3) = (   0.0000000   0.0000000  -0.7444933), wk =   0.0312500
        k(    4) = (   0.0000000   0.2500000   0.0000000), wk =   0.1250000
        k(    5) = (   0.0000000   0.2500000   0.3722466), wk =   0.2500000
        k(    6) = (   0.0000000   0.2500000  -0.7444933), wk =   0.1250000
        k(    7) = (   0.0000000  -0.5000000   0.0000000), wk =   0.0625000
        k(    8) = (   0.0000000  -0.5000000   0.3722466), wk =   0.1250000
        k(    9) = (   0.0000000  -0.5000000  -0.7444933), wk =   0.0625000
        k(   10) = (   0.2500000   0.2500000   0.0000000), wk =   0.0625000
        k(   11) = (   0.2500000   0.2500000   0.3722466), wk =   0.1250000
        k(   12) = (   0.2500000   0.2500000  -0.7444933), wk =   0.0625000
        k(   13) = (   0.2500000  -0.5000000   0.0000000), wk =   0.1250000
        k(   14) = (   0.2500000  -0.5000000   0.3722466), wk =   0.2500000
        k(   15) = (   0.2500000  -0.5000000  -0.7444933), wk =   0.1250000
        k(   16) = (  -0.5000000  -0.5000000   0.0000000), wk =   0.0312500
        k(   17) = (  -0.5000000  -0.5000000   0.3722466), wk =   0.0625000
        k(   18) = (  -0.5000000  -0.5000000  -0.7444933), wk =   0.0312500
        k(   19) = (   0.2500000  -0.2500000   0.0000000), wk =   0.0625000
        k(   20) = (   0.2500000  -0.2500000   0.3722466), wk =   0.1250000
        k(   21) = (   0.2500000  -0.2500000  -0.7444933), wk =   0.0625000

     Dense  grid:    44945 G-vectors     FFT dimensions: (  54,  54,  36)

     Estimated max dynamical RAM per process >      55.41 MB

     Estimated total dynamical RAM >     110.82 MB

     Check: negative/imaginary core charge=   -0.000002    0.000000

     Initial potential from superposition of free atoms

     starting charge   51.99690, renormalised to   52.00000
     Starting wfc are   34 randomized atomic wfcs

     total cpu time spent up to now is       12.1 secs

     Self-consistent Calculation

     iteration #  1     ecut=    75.00 Ry     beta= 0.70
     Davidson diagonalization with overlap
     ethr =  1.00E-02,  avg # of iterations =  2.0

     total cpu time spent up to now is       16.3 secs

     total energy              =    -446.84541325 Ry
     Harris-Foulkes estimate   =    -448.03069923 Ry
     estimated scf accuracy    <       1.60798980 Ry

     iteration #  2     ecut=    75.00 Ry     beta= 0.70
     Davidson diagonalization with overlap
     ethr =  3.09E-03,  avg # of iterations =  3.2

     total cpu time spent up to now is       21.4 secs

     total energy              =    -447.25342025 Ry
     Harris-Foulkes estimate   =    -448.07195887 Ry
     estimated scf accuracy    <       1.69455571 Ry

     iteration #  3     ecut=    75.00 Ry     beta= 0.70
     Davidson diagonalization with overlap
     ethr =  3.09E-03,  avg # of iterations =  3.0

     total cpu time spent up to now is       26.3 secs

     total energy              =    -447.58410971 Ry
     Harris-Foulkes estimate   =    -447.58472420 Ry
     estimated scf accuracy    <       0.00580946 Ry

     iteration #  4     ecut=    75.00 Ry     beta= 0.70
     Davidson diagonalization with overlap
     ethr =  1.12E-05,  avg # of iterations =  3.0

     total cpu time spent up to now is       31.6 secs

     total energy              =    -447.58707598 Ry
     Harris-Foulkes estimate   =    -447.58734039 Ry
     estimated scf accuracy    <       0.00055048 Ry

     iteration #  5     ecut=    75.00 Ry     beta= 0.70
     Davidson diagonalization with overlap
     ethr =  1.06E-06,  avg # of iterations =  2.0

     total cpu time spent up to now is       35.5 secs

     total energy              =    -447.58710978 Ry
     Harris-Foulkes estimate   =    -447.58712218 Ry
     estimated scf accuracy    <       0.00003860 Ry

     iteration #  6     ecut=    75.00 Ry     beta= 0.70
     Davidson diagonalization with overlap
     ethr =  7.42E-08,  avg # of iterations =  3.4

     total cpu time spent up to now is       41.0 secs

     total energy              =    -447.58712303 Ry
     Harris-Foulkes estimate   =    -447.58712572 Ry
     estimated scf accuracy    <       0.00000788 Ry

     iteration #  7     ecut=    75.00 Ry     beta= 0.70
     Davidson diagonalization with overlap
     ethr =  1.52E-08,  avg # of iterations =  3.5

     total cpu time spent up to now is       45.8 secs

     total energy              =    -447.58852026 Ry
     Harris-Foulkes estimate   =    -447.58853037 Ry
     estimated scf accuracy    <       0.00005866 Ry

     iteration #  8     ecut=    75.00 Ry     beta= 0.70
     Davidson diagonalization with overlap
     ethr =  1.52E-08,  avg # of iterations =  2.1

     total cpu time spent up to now is       50.0 secs

     total energy              =    -447.58851570 Ry
     Harris-Foulkes estimate   =    -447.58852093 Ry
     estimated scf accuracy    <       0.00003096 Ry

     iteration #  9     ecut=    75.00 Ry     beta= 0.70
     Davidson diagonalization with overlap
     ethr =  1.52E-08,  avg # of iterations =  2.5

     total cpu time spent up to now is       53.9 secs

     total energy              =    -447.58850680 Ry
     Harris-Foulkes estimate   =    -447.58851610 Ry
     estimated scf accuracy    <       0.00001717 Ry

     iteration # 10     ecut=    75.00 Ry     beta= 0.70
     Davidson diagonalization with overlap
     ethr =  1.52E-08,  avg # of iterations =  3.5

     total cpu time spent up to now is       59.1 secs

     total energy              =    -447.58851057 Ry
     Harris-Foulkes estimate   =    -447.58851092 Ry
     estimated scf accuracy    <       0.00000065 Ry

     iteration # 11     ecut=    75.00 Ry     beta= 0.70
     Davidson diagonalization with overlap
     ethr =  1.25E-09,  avg # of iterations =  3.6

     total cpu time spent up to now is       64.0 secs

     total energy              =    -447.58851071 Ry
     Harris-Foulkes estimate   =    -447.58851080 Ry
     estimated scf accuracy    <       0.00000015 Ry

     iteration # 12     ecut=    75.00 Ry     beta= 0.70
     Davidson diagonalization with overlap
     ethr =  2.86E-10,  avg # of iterations =  4.0
