
     Program MATDYN v.6.2.2 starts on  5May2018 at 20: 9:30 

     This program is part of the open-source Quantum ESPRESSO suite
     for quantum simulation of materials; please cite
         "P. Giannozzi et al., J. Phys.:Condens. Matter 21 395502 (2009);
         "P. Giannozzi et al., J. Phys.:Condens. Matter 29 465901 (2017);
          URL http://www.quantum-espresso.org", 
     in publications or presentations arising from this work. More details at
     http://www.quantum-espresso.org/quote

     Parallel version (MPI), running on     2 processors

     MPI processes distributed on     1 nodes
     R & G space division:  proc/nbgrp/npool/nimage =       2
     Max |d(i,j)-d*(j,i)| =  0.000177
     Max |d(i,j)-d*(j,i)|/|d(i,j)|:   0.0946%
     Max |d(i,j)-d*(j,i)| =  0.000177
     Max |d(i,j)-d*(j,i)|/|d(i,j)|:   0.0946%
     Max |d(i,j)-d*(j,i)| =  0.000177
     Max |d(i,j)-d*(j,i)|/|d(i,j)|:   0.0946%
     Max |d(i,j)-d*(j,i)| =  0.000177
     Max |d(i,j)-d*(j,i)|/|d(i,j)|:   0.0946%
     Max |d(i,j)-d*(j,i)| =  0.000177
     Max |d(i,j)-d*(j,i)|/|d(i,j)|:   0.0946%
     Max |d(i,j)-d*(j,i)| =  0.000177
     Max |d(i,j)-d*(j,i)|/|d(i,j)|:   0.0946%
     Max |d(i,j)-d*(j,i)| =  0.000177
     Max |d(i,j)-d*(j,i)|/|d(i,j)|:   0.0945%
     Max |d(i,j)-d*(j,i)| =  0.000177
     Max |d(i,j)-d*(j,i)|/|d(i,j)|:   0.0945%
     Max |d(i,j)-d*(j,i)| =  0.000177
     Max |d(i,j)-d*(j,i)|/|d(i,j)|:   0.0945%
     Max |d(i,j)-d*(j,i)| =  0.000177
     Max |d(i,j)-d*(j,i)|/|d(i,j)|:   0.0945%
     Max |d(i,j)-d*(j,i)| =  0.000177
     Max |d(i,j)-d*(j,i)|/|d(i,j)|:   0.0945%
     Max |d(i,j)-d*(j,i)| =  0.000177
     Max |d(i,j)-d*(j,i)|/|d(i,j)|:   0.0945%
     Max |d(i,j)-d*(j,i)| =  0.000177
     Max |d(i,j)-d*(j,i)|/|d(i,j)|:   0.0945%
     Max |d(i,j)-d*(j,i)| =  0.000177
     Max |d(i,j)-d*(j,i)|/|d(i,j)|:   0.0945%
     Max |d(i,j)-d*(j,i)| =  0.000177
     Max |d(i,j)-d*(j,i)|/|d(i,j)|:   0.0945%
     Max |d(i,j)-d*(j,i)| =  0.000177
     Max |d(i,j)-d*(j,i)|/|d(i,j)|:   0.0945%
     Max |d(i,j)-d*(j,i)| =  0.000177
     Max |d(i,j)-d*(j,i)|/|d(i,j)|:   0.0945%
     Max |d(i,j)-d*(j,i)| =  0.000177
     Max |d(i,j)-d*(j,i)|/|d(i,j)|:   0.0945%
     Max |d(i,j)-d*(j,i)| =  0.000177
     Max |d(i,j)-d*(j,i)|/|d(i,j)|:   0.0945%
     Max |d(i,j)-d*(j,i)| =  0.000177
     Max |d(i,j)-d*(j,i)|/|d(i,j)|:   0.0945%
     Max |d(i,j)-d*(j,i)| =  0.000177
     Max |d(i,j)-d*(j,i)|/|d(i,j)|:   0.0945%
     Max |d(i,j)-d*(j,i)| =  0.000177
     Max |d(i,j)-d*(j,i)|/|d(i,j)|:   0.0945%
     Max |d(i,j)-d*(j,i)| =  0.000177
     Max |d(i,j)-d*(j,i)|/|d(i,j)|:   0.0945%
     Max |d(i,j)-d*(j,i)| =  0.000177
     Max |d(i,j)-d*(j,i)|/|d(i,j)|:   0.0945%
     Max |d(i,j)-d*(j,i)| =  0.000177
     Max |d(i,j)-d*(j,i)|/|d(i,j)|:   0.0945%
     Max |d(i,j)-d*(j,i)| =  0.000177
     Max |d(i,j)-d*(j,i)|/|d(i,j)|:   0.0945%
     Max |d(i,j)-d*(j,i)| =  0.000177
     Max |d(i,j)-d*(j,i)|/|d(i,j)|:   0.0945%
     Max |d(i,j)-d*(j,i)| =  0.000177
     Max |d(i,j)-d*(j,i)|/|d(i,j)|:   0.0945%
     Max |d(i,j)-d*(j,i)| =  0.000177
     Max |d(i,j)-d*(j,i)|/|d(i,j)|:   0.0945%
     Max |d(i,j)-d*(j,i)| =  0.000177
     Max |d(i,j)-d*(j,i)|/|d(i,j)|:   0.0945%
     Max |d(i,j)-d*(j,i)| =  0.000177
     Max |d(i,j)-d*(j,i)|/|d(i,j)|:   0.0945%
     Max |d(i,j)-d*(j,i)| =  0.000177
     Max |d(i,j)-d*(j,i)|/|d(i,j)|:   0.0945%
     Max |d(i,j)-d*(j,i)| =  0.000177
     Max |d(i,j)-d*(j,i)|/|d(i,j)|:   0.0945%
     Max |d(i,j)-d*(j,i)| =  0.000177
     Max |d(i,j)-d*(j,i)|/|d(i,j)|:   0.0945%
     Max |d(i,j)-d*(j,i)| =  0.000177
     Max |d(i,j)-d*(j,i)|/|d(i,j)|:   0.0945%
     Max |d(i,j)-d*(j,i)| =  0.000177
     Max |d(i,j)-d*(j,i)|/|d(i,j)|:   0.0945%
     Max |d(i,j)-d*(j,i)| =  0.000177
     Max |d(i,j)-d*(j,i)|/|d(i,j)|:   0.0945%
     Max |d(i,j)-d*(j,i)| =  0.000177
     Max |d(i,j)-d*(j,i)|/|d(i,j)|:   0.0944%
     Max |d(i,j)-d*(j,i)| =  0.000177
     Max |d(i,j)-d*(j,i)|/|d(i,j)|:   0.0944%
     Max |d(i,j)-d*(j,i)| =  0.000177
     Max |d(i,j)-d*(j,i)|/|d(i,j)|:   0.0944%
     Max |d(i,j)-d*(j,i)| =  0.000177
     Max |d(i,j)-d*(j,i)|/|d(i,j)|:   0.0944%
     Max |d(i,j)-d*(j,i)| =  0.000177
     Max |d(i,j)-d*(j,i)|/|d(i,j)|:   0.0944%
     Max |d(i,j)-d*(j,i)| =  0.000177
     Max |d(i,j)-d*(j,i)|/|d(i,j)|:   0.0944%
     Max |d(i,j)-d*(j,i)| =  0.000177
     Max |d(i,j)-d*(j,i)|/|d(i,j)|:   0.0944%
     Max |d(i,j)-d*(j,i)| =  0.000177
     Max |d(i,j)-d*(j,i)|/|d(i,j)|:   0.0944%
     Max |d(i,j)-d*(j,i)| =  0.000177
     Max |d(i,j)-d*(j,i)|/|d(i,j)|:   0.0944%
     Max |d(i,j)-d*(j,i)| =  0.000177
     Max |d(i,j)-d*(j,i)|/|d(i,j)|:   0.0944%
     Max |d(i,j)-d*(j,i)| =  0.000177
     Max |d(i,j)-d*(j,i)|/|d(i,j)|:   0.0944%
     Max |d(i,j)-d*(j,i)| =  0.000177
     Max |d(i,j)-d*(j,i)|/|d(i,j)|:   0.0944%
     Max |d(i,j)-d*(j,i)| =  0.000177
     Max |d(i,j)-d*(j,i)|/|d(i,j)|:   0.0944%
     Max |d(i,j)-d*(j,i)| =  0.000177
     Max |d(i,j)-d*(j,i)|/|d(i,j)|:   0.0944%
     Max |d(i,j)-d*(j,i)| =  0.000177
     Max |d(i,j)-d*(j,i)|/|d(i,j)|:   0.0944%
     Max |d(i,j)-d*(j,i)| =  0.000177
     Max |d(i,j)-d*(j,i)|/|d(i,j)|:   0.0944%
     Max |d(i,j)-d*(j,i)| =  0.000177
     Max |d(i,j)-d*(j,i)|/|d(i,j)|:   0.0944%
     Max |d(i,j)-d*(j,i)| =  0.000177
     Max |d(i,j)-d*(j,i)|/|d(i,j)|:   0.0943%
     Max |d(i,j)-d*(j,i)| =  0.000177
     Max |d(i,j)-d*(j,i)|/|d(i,j)|:   0.0943%
     Max |d(i,j)-d*(j,i)| =  0.000177
     Max |d(i,j)-d*(j,i)|/|d(i,j)|:   0.0943%
     Max |d(i,j)-d*(j,i)| =  0.000177
     Max |d(i,j)-d*(j,i)|/|d(i,j)|:   0.0943%
     Max |d(i,j)-d*(j,i)| =  0.000177
     Max |d(i,j)-d*(j,i)|/|d(i,j)|:   0.0943%
     Max |d(i,j)-d*(j,i)| =  0.000177
     Max |d(i,j)-d*(j,i)|/|d(i,j)|:   0.0943%
     Max |d(i,j)-d*(j,i)| =  0.000177
     Max |d(i,j)-d*(j,i)|/|d(i,j)|:   0.0943%
     Max |d(i,j)-d*(j,i)| =  0.000177
     Max |d(i,j)-d*(j,i)|/|d(i,j)|:   0.0943%
     Max |d(i,j)-d*(j,i)| =  0.000177
     Max |d(i,j)-d*(j,i)|/|d(i,j)|:   0.0943%
     Max |d(i,j)-d*(j,i)| =  0.000177
     Max |d(i,j)-d*(j,i)|/|d(i,j)|:   0.0943%
     Max |d(i,j)-d*(j,i)| =  0.000177
     Max |d(i,j)-d*(j,i)|/|d(i,j)|:   0.0943%
     Max |d(i,j)-d*(j,i)| =  0.000177
     Max |d(i,j)-d*(j,i)|/|d(i,j)|:   0.0943%
     Max |d(i,j)-d*(j,i)| =  0.000177
     Max |d(i,j)-d*(j,i)|/|d(i,j)|:   0.0943%
     Max |d(i,j)-d*(j,i)| =  0.000177
     Max |d(i,j)-d*(j,i)|/|d(i,j)|:   0.0943%
     Max |d(i,j)-d*(j,i)| =  0.000177
     Max |d(i,j)-d*(j,i)|/|d(i,j)|:   0.0943%
     Max |d(i,j)-d*(j,i)| =  0.000177
     Max |d(i,j)-d*(j,i)|/|d(i,j)|:   0.0943%
     Max |d(i,j)-d*(j,i)| =  0.000177
     Max |d(i,j)-d*(j,i)|/|d(i,j)|:   0.0942%
     Max |d(i,j)-d*(j,i)| =  0.000177
     Max |d(i,j)-d*(j,i)|/|d(i,j)|:   0.0942%
     Max |d(i,j)-d*(j,i)| =  0.000177
     Max |d(i,j)-d*(j,i)|/|d(i,j)|:   0.0942%
     Max |d(i,j)-d*(j,i)| =  0.000177
     Max |d(i,j)-d*(j,i)|/|d(i,j)|:   0.0942%
     Max |d(i,j)-d*(j,i)| =  0.000177
     Max |d(i,j)-d*(j,i)|/|d(i,j)|:   0.0942%
     Max |d(i,j)-d*(j,i)| =  0.000177
     Max |d(i,j)-d*(j,i)|/|d(i,j)|:   0.0942%
     Max |d(i,j)-d*(j,i)| =  0.000177
     Max |d(i,j)-d*(j,i)|/|d(i,j)|:   0.0942%
     Max |d(i,j)-d*(j,i)| =  0.000177
     Max |d(i,j)-d*(j,i)|/|d(i,j)|:   0.0942%
     Max |d(i,j)-d*(j,i)| =  0.000177
     Max |d(i,j)-d*(j,i)|/|d(i,j)|:   0.0942%
     Max |d(i,j)-d*(j,i)| =  0.000177
     Max |d(i,j)-d*(j,i)|/|d(i,j)|:   0.0942%
     Max |d(i,j)-d*(j,i)| =  0.000177
     Max |d(i,j)-d*(j,i)|/|d(i,j)|:   0.0942%
     Max |d(i,j)-d*(j,i)| =  0.000177
     Max |d(i,j)-d*(j,i)|/|d(i,j)|:   0.0942%
     Max |d(i,j)-d*(j,i)| =  0.000177
     Max |d(i,j)-d*(j,i)|/|d(i,j)|:   0.0942%
     Max |d(i,j)-d*(j,i)| =  0.000177
     Max |d(i,j)-d*(j,i)|/|d(i,j)|:   0.0942%
     Max |d(i,j)-d*(j,i)| =  0.000177
     Max |d(i,j)-d*(j,i)|/|d(i,j)|:   0.0942%
     Max |d(i,j)-d*(j,i)| =  0.000177
     Max |d(i,j)-d*(j,i)|/|d(i,j)|:   0.0941%
     Max |d(i,j)-d*(j,i)| =  0.000177
     Max |d(i,j)-d*(j,i)|/|d(i,j)|:   0.0941%
     Max |d(i,j)-d*(j,i)| =  0.000177
     Max |d(i,j)-d*(j,i)|/|d(i,j)|:   0.0941%
     Max |d(i,j)-d*(j,i)| =  0.000177
     Max |d(i,j)-d*(j,i)|/|d(i,j)|:   0.0941%
     Max |d(i,j)-d*(j,i)| =  0.000177
     Max |d(i,j)-d*(j,i)|/|d(i,j)|:   0.0941%
     Max |d(i,j)-d*(j,i)| =  0.000177
     Max |d(i,j)-d*(j,i)|/|d(i,j)|:   0.0941%
     Max |d(i,j)-d*(j,i)| =  0.000177
     Max |d(i,j)-d*(j,i)|/|d(i,j)|:   0.0941%
     Max |d(i,j)-d*(j,i)| =  0.000177
     Max |d(i,j)-d*(j,i)|/|d(i,j)|:   0.0941%
     Max |d(i,j)-d*(j,i)| =  0.000177
     Max |d(i,j)-d*(j,i)|/|d(i,j)|:   0.0941%
     Max |d(i,j)-d*(j,i)| =  0.000177
     Max |d(i,j)-d*(j,i)|/|d(i,j)|:   0.0941%
     Max |d(i,j)-d*(j,i)| =  0.000177
     Max |d(i,j)-d*(j,i)|/|d(i,j)|:   0.0941%
     Max |d(i,j)-d*(j,i)| =  0.000177
     Max |d(i,j)-d*(j,i)|/|d(i,j)|:   0.0941%
     Max |d(i,j)-d*(j,i)| =  0.000177
     Max |d(i,j)-d*(j,i)|/|d(i,j)|:   0.0941%
     Max |d(i,j)-d*(j,i)| =  0.000177
     Max |d(i,j)-d*(j,i)|/|d(i,j)|:   0.0941%
     Max |d(i,j)-d*(j,i)| =  0.000177
     Max |d(i,j)-d*(j,i)|/|d(i,j)|:   0.0941%
     Max |d(i,j)-d*(j,i)| =  0.000177
     Max |d(i,j)-d*(j,i)|/|d(i,j)|:   0.0941%
     Max |d(i,j)-d*(j,i)| =  0.000177
     Max |d(i,j)-d*(j,i)|/|d(i,j)|:   0.0941%
     Max |d(i,j)-d*(j,i)| =  0.000177
     Max |d(i,j)-d*(j,i)|/|d(i,j)|:   0.0941%
     Max |d(i,j)-d*(j,i)| =  0.000177
     Max |d(i,j)-d*(j,i)|/|d(i,j)|:   0.0941%
     Max |d(i,j)-d*(j,i)| =  0.000177
     Max |d(i,j)-d*(j,i)|/|d(i,j)|:   0.0941%
     Max |d(i,j)-d*(j,i)| =  0.000177
     Max |d(i,j)-d*(j,i)|/|d(i,j)|:   0.0941%
     Max |d(i,j)-d*(j,i)| =  0.000177
     Max |d(i,j)-d*(j,i)|/|d(i,j)|:   0.0941%
     Max |d(i,j)-d*(j,i)| =  0.000177
     Max |d(i,j)-d*(j,i)|/|d(i,j)|:   0.0941%
     Max |d(i,j)-d*(j,i)| =  0.000177
     Max |d(i,j)-d*(j,i)|/|d(i,j)|:   0.0941%
     Max |d(i,j)-d*(j,i)| =  0.000177
     Max |d(i,j)-d*(j,i)|/|d(i,j)|:   0.0940%
     Max |d(i,j)-d*(j,i)| =  0.000177
     Max |d(i,j)-d*(j,i)|/|d(i,j)|:   0.0940%
     Max |d(i,j)-d*(j,i)| =  0.000177
     Max |d(i,j)-d*(j,i)|/|d(i,j)|:   0.0941%
     Max |d(i,j)-d*(j,i)| =  0.000177
     Max |d(i,j)-d*(j,i)|/|d(i,j)|:   0.0940%
     Max |d(i,j)-d*(j,i)| =  0.000177
     Max |d(i,j)-d*(j,i)|/|d(i,j)|:   0.0940%
     Max |d(i,j)-d*(j,i)| =  0.000177
     Max |d(i,j)-d*(j,i)|/|d(i,j)|:   0.0940%
     Max |d(i,j)-d*(j,i)| =  0.000177
     Max |d(i,j)-d*(j,i)|/|d(i,j)|:   0.0940%
     Max |d(i,j)-d*(j,i)| =  0.000177
     Max |d(i,j)-d*(j,i)|/|d(i,j)|:   0.0940%
     Max |d(i,j)-d*(j,i)| =  0.000177
     Max |d(i,j)-d*(j,i)|/|d(i,j)|:   0.0940%
     Max |d(i,j)-d*(j,i)| =  0.000177
     Max |d(i,j)-d*(j,i)|/|d(i,j)|:   0.0940%
     Max |d(i,j)-d*(j,i)| =  0.000177
     Max |d(i,j)-d*(j,i)|/|d(i,j)|:   0.0940%
     Max |d(i,j)-d*(j,i)| =  0.000177
     Max |d(i,j)-d*(j,i)|/|d(i,j)|:   0.0940%
     Max |d(i,j)-d*(j,i)| =  0.000177
     Max |d(i,j)-d*(j,i)|/|d(i,j)|:   0.0940%
     Max |d(i,j)-d*(j,i)| =  0.000177
     Max |d(i,j)-d*(j,i)|/|d(i,j)|:   0.0940%
     Max |d(i,j)-d*(j,i)| =  0.000177
     Max |d(i,j)-d*(j,i)|/|d(i,j)|:   0.0940%
     Max |d(i,j)-d*(j,i)| =  0.000177
     Max |d(i,j)-d*(j,i)|/|d(i,j)|:   0.0940%
     Max |d(i,j)-d*(j,i)| =  0.000177
     Max |d(i,j)-d*(j,i)|/|d(i,j)|:   0.0940%
     Max |d(i,j)-d*(j,i)| =  0.000177
     Max |d(i,j)-d*(j,i)|/|d(i,j)|:   0.0940%
     Max |d(i,j)-d*(j,i)| =  0.000177
     Max |d(i,j)-d*(j,i)|/|d(i,j)|:   0.0940%
     Max |d(i,j)-d*(j,i)| =  0.000177
     Max |d(i,j)-d*(j,i)|/|d(i,j)|:   0.0940%
     Max |d(i,j)-d*(j,i)| =  0.000177
     Max |d(i,j)-d*(j,i)|/|d(i,j)|:   0.0940%
     Max |d(i,j)-d*(j,i)| =  0.000177
     Max |d(i,j)-d*(j,i)|/|d(i,j)|:   0.0940%
     Max |d(i,j)-d*(j,i)| =  0.000177
     Max |d(i,j)-d*(j,i)|/|d(i,j)|:   0.0940%
     Max |d(i,j)-d*(j,i)| =  0.000177
     Max |d(i,j)-d*(j,i)|/|d(i,j)|:   0.0940%
     Max |d(i,j)-d*(j,i)| =  0.000177
     Max |d(i,j)-d*(j,i)|/|d(i,j)|:   0.0940%
     Max |d(i,j)-d*(j,i)| =  0.000177
     Max |d(i,j)-d*(j,i)|/|d(i,j)|:   0.0940%
     Max |d(i,j)-d*(j,i)| =  0.000177
     Max |d(i,j)-d*(j,i)|/|d(i,j)|:   0.0940%
     Max |d(i,j)-d*(j,i)| =  0.000177
     Max |d(i,j)-d*(j,i)|/|d(i,j)|:   0.0940%
     Max |d(i,j)-d*(j,i)| =  0.000177
     Max |d(i,j)-d*(j,i)|/|d(i,j)|:   0.0940%
     Max |d(i,j)-d*(j,i)| =  0.000177
     Max |d(i,j)-d*(j,i)|/|d(i,j)|:   0.0940%
     Max |d(i,j)-d*(j,i)| =  0.000177
     Max |d(i,j)-d*(j,i)|/|d(i,j)|:   0.0941%
     Max |d(i,j)-d*(j,i)| =  0.000177
     Max |d(i,j)-d*(j,i)|/|d(i,j)|:   0.0941%
     Max |d(i,j)-d*(j,i)| =  0.000177
     Max |d(i,j)-d*(j,i)|/|d(i,j)|:   0.0941%
     Max |d(i,j)-d*(j,i)| =  0.000177
     Max |d(i,j)-d*(j,i)|/|d(i,j)|:   0.0941%
     Max |d(i,j)-d*(j,i)| =  0.000177
     Max |d(i,j)-d*(j,i)|/|d(i,j)|:   0.0941%
     Max |d(i,j)-d*(j,i)| =  0.000177
     Max |d(i,j)-d*(j,i)|/|d(i,j)|:   0.0941%
     Max |d(i,j)-d*(j,i)| =  0.000177
     Max |d(i,j)-d*(j,i)|/|d(i,j)|:   0.0941%
     Max |d(i,j)-d*(j,i)| =  0.000177
     Max |d(i,j)-d*(j,i)|/|d(i,j)|:   0.0941%
     Max |d(i,j)-d*(j,i)| =  0.000177
     Max |d(i,j)-d*(j,i)|/|d(i,j)|:   0.0941%
     Max |d(i,j)-d*(j,i)| =  0.000177
     Max |d(i,j)-d*(j,i)|/|d(i,j)|:   0.0941%
     Max |d(i,j)-d*(j,i)| =  0.000177
     Max |d(i,j)-d*(j,i)|/|d(i,j)|:   0.0941%
     Max |d(i,j)-d*(j,i)| =  0.000177
     Max |d(i,j)-d*(j,i)|/|d(i,j)|:   0.0941%
     Max |d(i,j)-d*(j,i)| =  0.000177
     Max |d(i,j)-d*(j,i)|/|d(i,j)|:   0.0941%
     Max |d(i,j)-d*(j,i)| =  0.000177
     Max |d(i,j)-d*(j,i)|/|d(i,j)|:   0.0941%
     Max |d(i,j)-d*(j,i)| =  0.000177
     Max |d(i,j)-d*(j,i)|/|d(i,j)|:   0.0941%
     Max |d(i,j)-d*(j,i)| =  0.000177
     Max |d(i,j)-d*(j,i)|/|d(i,j)|:   0.0941%
     Max |d(i,j)-d*(j,i)| =  0.000177
     Max |d(i,j)-d*(j,i)|/|d(i,j)|:   0.0941%
     Max |d(i,j)-d*(j,i)| =  0.000177
     Max |d(i,j)-d*(j,i)|/|d(i,j)|:   0.0941%
     Max |d(i,j)-d*(j,i)| =  0.000177
     Max |d(i,j)-d*(j,i)|/|d(i,j)|:   0.0941%
     Max |d(i,j)-d*(j,i)| =  0.000177
     Max |d(i,j)-d*(j,i)|/|d(i,j)|:   0.0941%
     Max |d(i,j)-d*(j,i)| =  0.000177
     Max |d(i,j)-d*(j,i)|/|d(i,j)|:   0.0941%
     Max |d(i,j)-d*(j,i)| =  0.000177
     Max |d(i,j)-d*(j,i)|/|d(i,j)|:   0.0941%
     Max |d(i,j)-d*(j,i)| =  0.000177
     Max |d(i,j)-d*(j,i)|/|d(i,j)|:   0.0941%
     Max |d(i,j)-d*(j,i)| =  0.000177
     Max |d(i,j)-d*(j,i)|/|d(i,j)|:   0.0941%
     Max |d(i,j)-d*(j,i)| =  0.000177
     Max |d(i,j)-d*(j,i)|/|d(i,j)|:   0.0941%
     Max |d(i,j)-d*(j,i)| =  0.000177
     Max |d(i,j)-d*(j,i)|/|d(i,j)|:   0.0941%
     Max |d(i,j)-d*(j,i)| =  0.000177
     Max |d(i,j)-d*(j,i)|/|d(i,j)|:   0.0942%
     Max |d(i,j)-d*(j,i)| =  0.000177
     Max |d(i,j)-d*(j,i)|/|d(i,j)|:   0.0942%
     Max |d(i,j)-d*(j,i)| =  0.000177
     Max |d(i,j)-d*(j,i)|/|d(i,j)|:   0.0942%
     Max |d(i,j)-d*(j,i)| =  0.000177
     Max |d(i,j)-d*(j,i)|/|d(i,j)|:   0.0942%
     Max |d(i,j)-d*(j,i)| =  0.000177
     Max |d(i,j)-d*(j,i)|/|d(i,j)|:   0.0942%
     Max |d(i,j)-d*(j,i)| =  0.000177
     Max |d(i,j)-d*(j,i)|/|d(i,j)|:   0.0942%
     Max |d(i,j)-d*(j,i)| =  0.000177
     Max |d(i,j)-d*(j,i)|/|d(i,j)|:   0.0942%
     Max |d(i,j)-d*(j,i)| =  0.000177
     Max |d(i,j)-d*(j,i)|/|d(i,j)|:   0.0942%
     Max |d(i,j)-d*(j,i)| =  0.000177
     Max |d(i,j)-d*(j,i)|/|d(i,j)|:   0.0942%
     Max |d(i,j)-d*(j,i)| =  0.000177
     Max |d(i,j)-d*(j,i)|/|d(i,j)|:   0.0942%
     Max |d(i,j)-d*(j,i)| =  0.000177
     Max |d(i,j)-d*(j,i)|/|d(i,j)|:   0.0942%
     Max |d(i,j)-d*(j,i)| =  0.000177
     Max |d(i,j)-d*(j,i)|/|d(i,j)|:   0.0942%
     Max |d(i,j)-d*(j,i)| =  0.000177
     Max |d(i,j)-d*(j,i)|/|d(i,j)|:   0.0942%
     Max |d(i,j)-d*(j,i)| =  0.000177
     Max |d(i,j)-d*(j,i)|/|d(i,j)|:   0.0942%
     Max |d(i,j)-d*(j,i)| =  0.000177
     Max |d(i,j)-d*(j,i)|/|d(i,j)|:   0.0942%
     Max |d(i,j)-d*(j,i)| =  0.000177
     Max |d(i,j)-d*(j,i)|/|d(i,j)|:   0.0942%
     Max |d(i,j)-d*(j,i)| =  0.000177
     Max |d(i,j)-d*(j,i)|/|d(i,j)|:   0.0942%
     Max |d(i,j)-d*(j,i)| =  0.000177
     Max |d(i,j)-d*(j,i)|/|d(i,j)|:   0.0942%
     Max |d(i,j)-d*(j,i)| =  0.000177
     Max |d(i,j)-d*(j,i)|/|d(i,j)|:   0.0943%
     Max |d(i,j)-d*(j,i)| =  0.000177
     Max |d(i,j)-d*(j,i)|/|d(i,j)|:   0.0943%
     Max |d(i,j)-d*(j,i)| =  0.000177
     Max |d(i,j)-d*(j,i)|/|d(i,j)|:   0.0943%
     Max |d(i,j)-d*(j,i)| =  0.000177
     Max |d(i,j)-d*(j,i)|/|d(i,j)|:   0.0943%
     Max |d(i,j)-d*(j,i)| =  0.000177
     Max |d(i,j)-d*(j,i)|/|d(i,j)|:   0.0943%
     Max |d(i,j)-d*(j,i)| =  0.000177
     Max |d(i,j)-d*(j,i)|/|d(i,j)|:   0.0943%
     Max |d(i,j)-d*(j,i)| =  0.000177
     Max |d(i,j)-d*(j,i)|/|d(i,j)|:   0.0943%
     Max |d(i,j)-d*(j,i)| =  0.000177
     Max |d(i,j)-d*(j,i)|/|d(i,j)|:   0.0943%
     Max |d(i,j)-d*(j,i)| =  0.000177
     Max |d(i,j)-d*(j,i)|/|d(i,j)|:   0.0943%
     Max |d(i,j)-d*(j,i)| =  0.000177
     Max |d(i,j)-d*(j,i)|/|d(i,j)|:   0.0943%
     Max |d(i,j)-d*(j,i)| =  0.000177
     Max |d(i,j)-d*(j,i)|/|d(i,j)|:   0.0943%
     Max |d(i,j)-d*(j,i)| =  0.000177
     Max |d(i,j)-d*(j,i)|/|d(i,j)|:   0.0943%
     Max |d(i,j)-d*(j,i)| =  0.000177
     Max |d(i,j)-d*(j,i)|/|d(i,j)|:   0.0943%
     Max |d(i,j)-d*(j,i)| =  0.000177
     Max |d(i,j)-d*(j,i)|/|d(i,j)|:   0.0943%
     Max |d(i,j)-d*(j,i)| =  0.000177
     Max |d(i,j)-d*(j,i)|/|d(i,j)|:   0.0943%
     Max |d(i,j)-d*(j,i)| =  0.000177
     Max |d(i,j)-d*(j,i)|/|d(i,j)|:   0.0944%
     Max |d(i,j)-d*(j,i)| =  0.000177
     Max |d(i,j)-d*(j,i)|/|d(i,j)|:   0.0944%
     Max |d(i,j)-d*(j,i)| =  0.000177
     Max |d(i,j)-d*(j,i)|/|d(i,j)|:   0.0944%
     Max |d(i,j)-d*(j,i)| =  0.000177
     Max |d(i,j)-d*(j,i)|/|d(i,j)|:   0.0944%
     Max |d(i,j)-d*(j,i)| =  0.000177
     Max |d(i,j)-d*(j,i)|/|d(i,j)|:   0.0944%
     Max |d(i,j)-d*(j,i)| =  0.000177
     Max |d(i,j)-d*(j,i)|/|d(i,j)|:   0.0944%
     Max |d(i,j)-d*(j,i)| =  0.000177
     Max |d(i,j)-d*(j,i)|/|d(i,j)|:   0.0944%
     Max |d(i,j)-d*(j,i)| =  0.000177
     Max |d(i,j)-d*(j,i)|/|d(i,j)|:   0.0944%
     Max |d(i,j)-d*(j,i)| =  0.000177
     Max |d(i,j)-d*(j,i)|/|d(i,j)|:   0.0944%
     Max |d(i,j)-d*(j,i)| =  0.000177
     Max |d(i,j)-d*(j,i)|/|d(i,j)|:   0.0944%
     Max |d(i,j)-d*(j,i)| =  0.000177
     Max |d(i,j)-d*(j,i)|/|d(i,j)|:   0.0944%
     Max |d(i,j)-d*(j,i)| =  0.000177
     Max |d(i,j)-d*(j,i)|/|d(i,j)|:   0.0944%
     Max |d(i,j)-d*(j,i)| =  0.000177
     Max |d(i,j)-d*(j,i)|/|d(i,j)|:   0.0944%
     Max |d(i,j)-d*(j,i)| =  0.000177
     Max |d(i,j)-d*(j,i)|/|d(i,j)|:   0.0944%
     Max |d(i,j)-d*(j,i)| =  0.000177
     Max |d(i,j)-d*(j,i)|/|d(i,j)|:   0.0944%
     Max |d(i,j)-d*(j,i)| =  0.000177
     Max |d(i,j)-d*(j,i)|/|d(i,j)|:   0.0944%
     Max |d(i,j)-d*(j,i)| =  0.000177
     Max |d(i,j)-d*(j,i)|/|d(i,j)|:   0.0944%
     Max |d(i,j)-d*(j,i)| =  0.000177
     Max |d(i,j)-d*(j,i)|/|d(i,j)|:   0.0945%
     Max |d(i,j)-d*(j,i)| =  0.000177
     Max |d(i,j)-d*(j,i)|/|d(i,j)|:   0.0945%
     Max |d(i,j)-d*(j,i)| =  0.000177
     Max |d(i,j)-d*(j,i)|/|d(i,j)|:   0.0945%
     Max |d(i,j)-d*(j,i)| =  0.000177
     Max |d(i,j)-d*(j,i)|/|d(i,j)|:   0.0945%
     Max |d(i,j)-d*(j,i)| =  0.000177
     Max |d(i,j)-d*(j,i)|/|d(i,j)|:   0.0945%
     Max |d(i,j)-d*(j,i)| =  0.000177
     Max |d(i,j)-d*(j,i)|/|d(i,j)|:   0.0945%
     Max |d(i,j)-d*(j,i)| =  0.000177
     Max |d(i,j)-d*(j,i)|/|d(i,j)|:   0.0945%
     Max |d(i,j)-d*(j,i)| =  0.000177
     Max |d(i,j)-d*(j,i)|/|d(i,j)|:   0.0945%
     Max |d(i,j)-d*(j,i)| =  0.000177
     Max |d(i,j)-d*(j,i)|/|d(i,j)|:   0.0945%
     Max |d(i,j)-d*(j,i)| =  0.000177
     Max |d(i,j)-d*(j,i)|/|d(i,j)|:   0.0945%
     Max |d(i,j)-d*(j,i)| =  0.000177
     Max |d(i,j)-d*(j,i)|/|d(i,j)|:   0.0945%
     Max |d(i,j)-d*(j,i)| =  0.000177
     Max |d(i,j)-d*(j,i)|/|d(i,j)|:   0.0945%
     Max |d(i,j)-d*(j,i)| =  0.000177
     Max |d(i,j)-d*(j,i)|/|d(i,j)|:   0.0945%
     Max |d(i,j)-d*(j,i)| =  0.000177
     Max |d(i,j)-d*(j,i)|/|d(i,j)|:   0.0945%
     Max |d(i,j)-d*(j,i)| =  0.000177
     Max |d(i,j)-d*(j,i)|/|d(i,j)|:   0.0945%
     Max |d(i,j)-d*(j,i)| =  0.000177
     Max |d(i,j)-d*(j,i)|/|d(i,j)|:   0.0945%
     Max |d(i,j)-d*(j,i)| =  0.000177
     Max |d(i,j)-d*(j,i)|/|d(i,j)|:   0.0945%
     Max |d(i,j)-d*(j,i)| =  0.000177
     Max |d(i,j)-d*(j,i)|/|d(i,j)|:   0.0945%
     Max |d(i,j)-d*(j,i)| =  0.000177
     Max |d(i,j)-d*(j,i)|/|d(i,j)|:   0.0945%
     Max |d(i,j)-d*(j,i)| =  0.000177
     Max |d(i,j)-d*(j,i)|/|d(i,j)|:   0.0945%
     Max |d(i,j)-d*(j,i)| =  0.000177
     Max |d(i,j)-d*(j,i)|/|d(i,j)|:   0.0945%
     Max |d(i,j)-d*(j,i)| =  0.000177
     Max |d(i,j)-d*(j,i)|/|d(i,j)|:   0.0945%
     Max |d(i,j)-d*(j,i)| =  0.000177
     Max |d(i,j)-d*(j,i)|/|d(i,j)|:   0.0945%
     Max |d(i,j)-d*(j,i)| =  0.000177
     Max |d(i,j)-d*(j,i)|/|d(i,j)|:   0.0945%
     Max |d(i,j)-d*(j,i)| =  0.000177
     Max |d(i,j)-d*(j,i)|/|d(i,j)|:   0.0945%
     Max |d(i,j)-d*(j,i)| =  0.000177
     Max |d(i,j)-d*(j,i)|/|d(i,j)|:   0.0945%
     Max |d(i,j)-d*(j,i)| =  0.000177
     Max |d(i,j)-d*(j,i)|/|d(i,j)|:   0.0945%
     Max |d(i,j)-d*(j,i)| =  0.000177
     Max |d(i,j)-d*(j,i)|/|d(i,j)|:   0.0945%
     Max |d(i,j)-d*(j,i)| =  0.000177
     Max |d(i,j)-d*(j,i)|/|d(i,j)|:   0.0945%
     Max |d(i,j)-d*(j,i)| =  0.000177
     Max |d(i,j)-d*(j,i)|/|d(i,j)|:   0.0945%
     Max |d(i,j)-d*(j,i)| =  0.000177
     Max |d(i,j)-d*(j,i)|/|d(i,j)|:   0.0945%
     Max |d(i,j)-d*(j,i)| =  0.000177
     Max |d(i,j)-d*(j,i)|/|d(i,j)|:   0.0945%
     Max |d(i,j)-d*(j,i)| =  0.000177
     Max |d(i,j)-d*(j,i)|/|d(i,j)|:   0.0945%
     Max |d(i,j)-d*(j,i)| =  0.000177
     Max |d(i,j)-d*(j,i)|/|d(i,j)|:   0.0945%
     Max |d(i,j)-d*(j,i)| =  0.000177
     Max |d(i,j)-d*(j,i)|/|d(i,j)|:   0.0945%
     Max |d(i,j)-d*(j,i)| =  0.000177
     Max |d(i,j)-d*(j,i)|/|d(i,j)|:   0.0945%
     Max |d(i,j)-d*(j,i)| =  0.000177
     Max |d(i,j)-d*(j,i)|/|d(i,j)|:   0.0945%
     Max |d(i,j)-d*(j,i)| =  0.000177
     Max |d(i,j)-d*(j,i)|/|d(i,j)|:   0.0945%
     Max |d(i,j)-d*(j,i)| =  0.000177
     Max |d(i,j)-d*(j,i)|/|d(i,j)|:   0.0945%
     Max |d(i,j)-d*(j,i)| =  0.000177
     Max |d(i,j)-d*(j,i)|/|d(i,j)|:   0.0945%
     Max |d(i,j)-d*(j,i)| =  0.000177
     Max |d(i,j)-d*(j,i)|/|d(i,j)|:   0.0945%
     Max |d(i,j)-d*(j,i)| =  0.000177
     Max |d(i,j)-d*(j,i)|/|d(i,j)|:   0.0945%
     Max |d(i,j)-d*(j,i)| =  0.000177
     Max |d(i,j)-d*(j,i)|/|d(i,j)|:   0.0945%
     Max |d(i,j)-d*(j,i)| =  0.000177
     Max |d(i,j)-d*(j,i)|/|d(i,j)|:   0.0945%
     Max |d(i,j)-d*(j,i)| =  0.000177
     Max |d(i,j)-d*(j,i)|/|d(i,j)|:   0.0945%
     Max |d(i,j)-d*(j,i)| =  0.000177
     Max |d(i,j)-d*(j,i)|/|d(i,j)|:   0.0945%
     Max |d(i,j)-d*(j,i)| =  0.000177
     Max |d(i,j)-d*(j,i)|/|d(i,j)|:   0.0945%
     Max |d(i,j)-d*(j,i)| =  0.000177
     Max |d(i,j)-d*(j,i)|/|d(i,j)|:   0.0945%
     Max |d(i,j)-d*(j,i)| =  0.000177
     Max |d(i,j)-d*(j,i)|/|d(i,j)|:   0.0945%
     Max |d(i,j)-d*(j,i)| =  0.000177
     Max |d(i,j)-d*(j,i)|/|d(i,j)|:   0.0945%
     Max |d(i,j)-d*(j,i)| =  0.000177
     Max |d(i,j)-d*(j,i)|/|d(i,j)|:   0.0945%
     Max |d(i,j)-d*(j,i)| =  0.000177
     Max |d(i,j)-d*(j,i)|/|d(i,j)|:   0.0945%
     Max |d(i,j)-d*(j,i)| =  0.000177
     Max |d(i,j)-d*(j,i)|/|d(i,j)|:   0.0945%
     Max |d(i,j)-d*(j,i)| =  0.000177
     Max |d(i,j)-d*(j,i)|/|d(i,j)|:   0.0945%
     Max |d(i,j)-d*(j,i)| =  0.000177
     Max |d(i,j)-d*(j,i)|/|d(i,j)|:   0.0945%
     Max |d(i,j)-d*(j,i)| =  0.000177
     Max |d(i,j)-d*(j,i)|/|d(i,j)|:   0.0945%
     Max |d(i,j)-d*(j,i)| =  0.000177
     Max |d(i,j)-d*(j,i)|/|d(i,j)|:   0.0946%
     Max |d(i,j)-d*(j,i)| =  0.000177
     Max |d(i,j)-d*(j,i)|/|d(i,j)|:   0.0945%
     Max |d(i,j)-d*(j,i)| =  0.000177
     Max |d(i,j)-d*(j,i)|/|d(i,j)|:   0.0946%
     Max |d(i,j)-d*(j,i)| =  0.000177
     Max |d(i,j)-d*(j,i)|/|d(i,j)|:   0.0946%
     Max |d(i,j)-d*(j,i)| =  0.000177
     Max |d(i,j)-d*(j,i)|/|d(i,j)|:   0.0946%
     Max |d(i,j)-d*(j,i)| =  0.000177
     Max |d(i,j)-d*(j,i)|/|d(i,j)|:   0.0946%
     Max |d(i,j)-d*(j,i)| =  0.000177
     Max |d(i,j)-d*(j,i)|/|d(i,j)|:   0.0946%
     Max |d(i,j)-d*(j,i)| =  0.000177
     Max |d(i,j)-d*(j,i)|/|d(i,j)|:   0.0946%
     Max |d(i,j)-d*(j,i)| =  0.000177
     Max |d(i,j)-d*(j,i)|/|d(i,j)|:   0.0946%
     Max |d(i,j)-d*(j,i)| =  0.000177
     Max |d(i,j)-d*(j,i)|/|d(i,j)|:   0.0946%
     Max |d(i,j)-d*(j,i)| =  0.000177
     Max |d(i,j)-d*(j,i)|/|d(i,j)|:   0.0946%
     Max |d(i,j)-d*(j,i)| =  0.000177
     Max |d(i,j)-d*(j,i)|/|d(i,j)|:   0.0946%
     Max |d(i,j)-d*(j,i)| =  0.000177
     Max |d(i,j)-d*(j,i)|/|d(i,j)|:   0.0946%
     Max |d(i,j)-d*(j,i)| =  0.000177
     Max |d(i,j)-d*(j,i)|/|d(i,j)|:   0.0946%
     Max |d(i,j)-d*(j,i)| =  0.000177
     Max |d(i,j)-d*(j,i)|/|d(i,j)|:   0.0946%
     Max |d(i,j)-d*(j,i)| =  0.000177
     Max |d(i,j)-d*(j,i)|/|d(i,j)|:   0.0946%
     Max |d(i,j)-d*(j,i)| =  0.000177
     Max |d(i,j)-d*(j,i)|/|d(i,j)|:   0.0946%
     Max |d(i,j)-d*(j,i)| =  0.000177
     Max |d(i,j)-d*(j,i)|/|d(i,j)|:   0.0946%
     Max |d(i,j)-d*(j,i)| =  0.000177
     Max |d(i,j)-d*(j,i)|/|d(i,j)|:   0.0946%
     Max |d(i,j)-d*(j,i)| =  0.000177
     Max |d(i,j)-d*(j,i)|/|d(i,j)|:   0.0946%
     Max |d(i,j)-d*(j,i)| =  0.000177
     Max |d(i,j)-d*(j,i)|/|d(i,j)|:   0.0946%
     Max |d(i,j)-d*(j,i)| =  0.000177
     Max |d(i,j)-d*(j,i)|/|d(i,j)|:   0.0946%
     Max |d(i,j)-d*(j,i)| =  0.000177
     Max |d(i,j)-d*(j,i)|/|d(i,j)|:   0.0946%
     Max |d(i,j)-d*(j,i)| =  0.000177
     Max |d(i,j)-d*(j,i)|/|d(i,j)|:   0.0946%
     Max |d(i,j)-d*(j,i)| =  0.000177
     Max |d(i,j)-d*(j,i)|/|d(i,j)|:   0.0946%
     Max |d(i,j)-d*(j,i)| =  0.000177
     Max |d(i,j)-d*(j,i)|/|d(i,j)|:   0.0946%
     Max |d(i,j)-d*(j,i)| =  0.000177
     Max |d(i,j)-d*(j,i)|/|d(i,j)|:   0.0946%
     Max |d(i,j)-d*(j,i)| =  0.000177
     Max |d(i,j)-d*(j,i)|/|d(i,j)|:   0.0946%
     Max |d(i,j)-d*(j,i)| =  0.000177
     Max |d(i,j)-d*(j,i)|/|d(i,j)|:   0.0946%
     Max |d(i,j)-d*(j,i)| =  0.000177
     Max |d(i,j)-d*(j,i)|/|d(i,j)|:   0.0946%
     Max |d(i,j)-d*(j,i)| =  0.000177
     Max |d(i,j)-d*(j,i)|/|d(i,j)|:   0.0946%
     Max |d(i,j)-d*(j,i)| =  0.000177
     Max |d(i,j)-d*(j,i)|/|d(i,j)|:   0.0946%
     Max |d(i,j)-d*(j,i)| =  0.000177
     Max |d(i,j)-d*(j,i)|/|d(i,j)|:   0.0946%
     Max |d(i,j)-d*(j,i)| =  0.000177
     Max |d(i,j)-d*(j,i)|/|d(i,j)|:   0.0946%
     Max |d(i,j)-d*(j,i)| =  0.000177
     Max |d(i,j)-d*(j,i)|/|d(i,j)|:   0.0946%
     Max |d(i,j)-d*(j,i)| =  0.000177
     Max |d(i,j)-d*(j,i)|/|d(i,j)|:   0.0946%
     Max |d(i,j)-d*(j,i)| =  0.000177
     Max |d(i,j)-d*(j,i)|/|d(i,j)|:   0.0946%
     Max |d(i,j)-d*(j,i)| =  0.000177
     Max |d(i,j)-d*(j,i)|/|d(i,j)|:   0.0946%
     Max |d(i,j)-d*(j,i)| =  0.000177
     Max |d(i,j)-d*(j,i)|/|d(i,j)|:   0.0946%
     Max |d(i,j)-d*(j,i)| =  0.000177
     Max |d(i,j)-d*(j,i)|/|d(i,j)|:   0.0946%
     Max |d(i,j)-d*(j,i)| =  0.000177
     Max |d(i,j)-d*(j,i)|/|d(i,j)|:   0.0946%
     Max |d(i,j)-d*(j,i)| =  0.000177
     Max |d(i,j)-d*(j,i)|/|d(i,j)|:   0.0946%
     Max |d(i,j)-d*(j,i)| =  0.000177
     Max |d(i,j)-d*(j,i)|/|d(i,j)|:   0.0946%
     Max |d(i,j)-d*(j,i)| =  0.000177
     Max |d(i,j)-d*(j,i)|/|d(i,j)|:   0.0946%
     Max |d(i,j)-d*(j,i)| =  0.000177
     Max |d(i,j)-d*(j,i)|/|d(i,j)|:   0.0946%
     Max |d(i,j)-d*(j,i)| =  0.000177
     Max |d(i,j)-d*(j,i)|/|d(i,j)|:   0.0946%
     Max |d(i,j)-d*(j,i)| =  0.000177
     Max |d(i,j)-d*(j,i)|/|d(i,j)|:   0.0946%
     Max |d(i,j)-d*(j,i)| =  0.000177
     Max |d(i,j)-d*(j,i)|/|d(i,j)|:   0.0946%
     Max |d(i,j)-d*(j,i)| =  0.000177
     Max |d(i,j)-d*(j,i)|/|d(i,j)|:   0.0946%
     Max |d(i,j)-d*(j,i)| =  0.000177
     Max |d(i,j)-d*(j,i)|/|d(i,j)|:   0.0946%
     Max |d(i,j)-d*(j,i)| =  0.000177
     Max |d(i,j)-d*(j,i)|/|d(i,j)|:   0.0946%
     Max |d(i,j)-d*(j,i)| =  0.000177
     Max |d(i,j)-d*(j,i)|/|d(i,j)|:   0.0946%
     Max |d(i,j)-d*(j,i)| =  0.000177
     Max |d(i,j)-d*(j,i)|/|d(i,j)|:   0.0946%
     Max |d(i,j)-d*(j,i)| =  0.000177
     Max |d(i,j)-d*(j,i)|/|d(i,j)|:   0.0946%
     Max |d(i,j)-d*(j,i)| =  0.000177
     Max |d(i,j)-d*(j,i)|/|d(i,j)|:   0.0946%
     Max |d(i,j)-d*(j,i)| =  0.000177
     Max |d(i,j)-d*(j,i)|/|d(i,j)|:   0.0946%
     Max |d(i,j)-d*(j,i)| =  0.000177
     Max |d(i,j)-d*(j,i)|/|d(i,j)|:   0.0946%
     Max |d(i,j)-d*(j,i)| =  0.000177
     Max |d(i,j)-d*(j,i)|/|d(i,j)|:   0.0946%
     Max |d(i,j)-d*(j,i)| =  0.000177
     Max |d(i,j)-d*(j,i)|/|d(i,j)|:   0.0946%
     Max |d(i,j)-d*(j,i)| =  0.000177
     Max |d(i,j)-d*(j,i)|/|d(i,j)|:   0.0946%
     Max |d(i,j)-d*(j,i)| =  0.000177
     Max |d(i,j)-d*(j,i)|/|d(i,j)|:   0.0946%
     Max |d(i,j)-d*(j,i)| =  0.000177
     Max |d(i,j)-d*(j,i)|/|d(i,j)|:   0.0946%
     Max |d(i,j)-d*(j,i)| =  0.000177
     Max |d(i,j)-d*(j,i)|/|d(i,j)|:   0.0946%
     Max |d(i,j)-d*(j,i)| =  0.000177
     Max |d(i,j)-d*(j,i)|/|d(i,j)|:   0.0946%
     Max |d(i,j)-d*(j,i)| =  0.000177
     Max |d(i,j)-d*(j,i)|/|d(i,j)|:   0.0946%
     Max |d(i,j)-d*(j,i)| =  0.000177
     Max |d(i,j)-d*(j,i)|/|d(i,j)|:   0.0946%
     Max |d(i,j)-d*(j,i)| =  0.000177
     Max |d(i,j)-d*(j,i)|/|d(i,j)|:   0.0946%
     Max |d(i,j)-d*(j,i)| =  0.000177
     Max |d(i,j)-d*(j,i)|/|d(i,j)|:   0.0946%
     Max |d(i,j)-d*(j,i)| =  0.000177
     Max |d(i,j)-d*(j,i)|/|d(i,j)|:   0.0946%
     Max |d(i,j)-d*(j,i)| =  0.000177
     Max |d(i,j)-d*(j,i)|/|d(i,j)|:   0.0946%
     Max |d(i,j)-d*(j,i)| =  0.000177
     Max |d(i,j)-d*(j,i)|/|d(i,j)|:   0.0946%
     Max |d(i,j)-d*(j,i)| =  0.000177
     Max |d(i,j)-d*(j,i)|/|d(i,j)|:   0.0946%
     Max |d(i,j)-d*(j,i)| =  0.000177
     Max |d(i,j)-d*(j,i)|/|d(i,j)|:   0.0946%
     Max |d(i,j)-d*(j,i)| =  0.000177
     Max |d(i,j)-d*(j,i)|/|d(i,j)|:   0.0946%
     Max |d(i,j)-d*(j,i)| =  0.000177
     Max |d(i,j)-d*(j,i)|/|d(i,j)|:   0.0946%
     Max |d(i,j)-d*(j,i)| =  0.000177
     Max |d(i,j)-d*(j,i)|/|d(i,j)|:   0.0946%
     Max |d(i,j)-d*(j,i)| =  0.000177
     Max |d(i,j)-d*(j,i)|/|d(i,j)|:   0.0946%
     Max |d(i,j)-d*(j,i)| =  0.000177
     Max |d(i,j)-d*(j,i)|/|d(i,j)|:   0.0946%
     Max |d(i,j)-d*(j,i)| =  0.000177
     Max |d(i,j)-d*(j,i)|/|d(i,j)|:   0.0946%
     Max |d(i,j)-d*(j,i)| =  0.000177
     Max |d(i,j)-d*(j,i)|/|d(i,j)|:   0.0946%
     Max |d(i,j)-d*(j,i)| =  0.000177
     Max |d(i,j)-d*(j,i)|/|d(i,j)|:   0.0946%
     Max |d(i,j)-d*(j,i)| =  0.000177
     Max |d(i,j)-d*(j,i)|/|d(i,j)|:   0.0946%
     Max |d(i,j)-d*(j,i)| =  0.000177
     Max |d(i,j)-d*(j,i)|/|d(i,j)|:   0.0946%
     Max |d(i,j)-d*(j,i)| =  0.000177
     Max |d(i,j)-d*(j,i)|/|d(i,j)|:   0.0946%
     Max |d(i,j)-d*(j,i)| =  0.000177
     Max |d(i,j)-d*(j,i)|/|d(i,j)|:   0.0946%
     Max |d(i,j)-d*(j,i)| =  0.000177
     Max |d(i,j)-d*(j,i)|/|d(i,j)|:   0.0946%
     Max |d(i,j)-d*(j,i)| =  0.000177
     Max |d(i,j)-d*(j,i)|/|d(i,j)|:   0.0946%
     Max |d(i,j)-d*(j,i)| =  0.000177
     Max |d(i,j)-d*(j,i)|/|d(i,j)|:   0.0946%
     Max |d(i,j)-d*(j,i)| =  0.000177
     Max |d(i,j)-d*(j,i)|/|d(i,j)|:   0.0946%
     Max |d(i,j)-d*(j,i)| =  0.000177
     Max |d(i,j)-d*(j,i)|/|d(i,j)|:   0.0946%
     Max |d(i,j)-d*(j,i)| =  0.000177
     Max |d(i,j)-d*(j,i)|/|d(i,j)|:   0.0946%
     Max |d(i,j)-d*(j,i)| =  0.000177
     Max |d(i,j)-d*(j,i)|/|d(i,j)|:   0.0946%
     Max |d(i,j)-d*(j,i)| =  0.000177
     Max |d(i,j)-d*(j,i)|/|d(i,j)|:   0.0946%
     Max |d(i,j)-d*(j,i)| =  0.000177
     Max |d(i,j)-d*(j,i)|/|d(i,j)|:   0.0946%
     Max |d(i,j)-d*(j,i)| =  0.000177
     Max |d(i,j)-d*(j,i)|/|d(i,j)|:   0.0946%
     Max |d(i,j)-d*(j,i)| =  0.000177
     Max |d(i,j)-d*(j,i)|/|d(i,j)|:   0.0946%
     Max |d(i,j)-d*(j,i)| =  0.000177
     Max |d(i,j)-d*(j,i)|/|d(i,j)|:   0.0946%
     Max |d(i,j)-d*(j,i)| =  0.000177
     Max |d(i,j)-d*(j,i)|/|d(i,j)|:   0.0946%
     Max |d(i,j)-d*(j,i)| =  0.000177
     Max |d(i,j)-d*(j,i)|/|d(i,j)|:   0.0946%
     Max |d(i,j)-d*(j,i)| =  0.000177
     Max |d(i,j)-d*(j,i)|/|d(i,j)|:   0.0946%
     Max |d(i,j)-d*(j,i)| =  0.000177
     Max |d(i,j)-d*(j,i)|/|d(i,j)|:   0.0946%
     Max |d(i,j)-d*(j,i)| =  0.000177
     Max |d(i,j)-d*(j,i)|/|d(i,j)|:   0.0946%
     Max |d(i,j)-d*(j,i)| =  0.000177
     Max |d(i,j)-d*(j,i)|/|d(i,j)|:   0.0946%
     Max |d(i,j)-d*(j,i)| =  0.000177
     Max |d(i,j)-d*(j,i)|/|d(i,j)|:   0.0946%
     Max |d(i,j)-d*(j,i)| =  0.000177
     Max |d(i,j)-d*(j,i)|/|d(i,j)|:   0.0946%
     Max |d(i,j)-d*(j,i)| =  0.000177
     Max |d(i,j)-d*(j,i)|/|d(i,j)|:   0.0946%
     Max |d(i,j)-d*(j,i)| =  0.000177
     Max |d(i,j)-d*(j,i)|/|d(i,j)|:   0.0946%
     Max |d(i,j)-d*(j,i)| =  0.000177
     Max |d(i,j)-d*(j,i)|/|d(i,j)|:   0.0946%
     Max |d(i,j)-d*(j,i)| =  0.000177
     Max |d(i,j)-d*(j,i)|/|d(i,j)|:   0.0946%
     Max |d(i,j)-d*(j,i)| =  0.000177
     Max |d(i,j)-d*(j,i)|/|d(i,j)|:   0.0946%
     Max |d(i,j)-d*(j,i)| =  0.000177
     Max |d(i,j)-d*(j,i)|/|d(i,j)|:   0.0946%
     Max |d(i,j)-d*(j,i)| =  0.000177
     Max |d(i,j)-d*(j,i)|/|d(i,j)|:   0.0946%
     Max |d(i,j)-d*(j,i)| =  0.000177
     Max |d(i,j)-d*(j,i)|/|d(i,j)|:   0.0946%
     Max |d(i,j)-d*(j,i)| =  0.000177
     Max |d(i,j)-d*(j,i)|/|d(i,j)|:   0.0946%
     Max |d(i,j)-d*(j,i)| =  0.000177
     Max |d(i,j)-d*(j,i)|/|d(i,j)|:   0.0946%
     Max |d(i,j)-d*(j,i)| =  0.000177
     Max |d(i,j)-d*(j,i)|/|d(i,j)|:   0.0946%
     Max |d(i,j)-d*(j,i)| =  0.000177
     Max |d(i,j)-d*(j,i)|/|d(i,j)|:   0.0946%
     Max |d(i,j)-d*(j,i)| =  0.000177
     Max |d(i,j)-d*(j,i)|/|d(i,j)|:   0.0946%
     Max |d(i,j)-d*(j,i)| =  0.000177
     Max |d(i,j)-d*(j,i)|/|d(i,j)|:   0.0946%
     Max |d(i,j)-d*(j,i)| =  0.000177
     Max |d(i,j)-d*(j,i)|/|d(i,j)|:   0.0946%
     Max |d(i,j)-d*(j,i)| =  0.000177
     Max |d(i,j)-d*(j,i)|/|d(i,j)|:   0.0946%
     Max |d(i,j)-d*(j,i)| =  0.000177
     Max |d(i,j)-d*(j,i)|/|d(i,j)|:   0.0946%
     Max |d(i,j)-d*(j,i)| =  0.000177
     Max |d(i,j)-d*(j,i)|/|d(i,j)|:   0.0946%
     Max |d(i,j)-d*(j,i)| =  0.000177
     Max |d(i,j)-d*(j,i)|/|d(i,j)|:   0.0946%
     Max |d(i,j)-d*(j,i)| =  0.000177
     Max |d(i,j)-d*(j,i)|/|d(i,j)|:   0.0946%
     Max |d(i,j)-d*(j,i)| =  0.000177
     Max |d(i,j)-d*(j,i)|/|d(i,j)|:   0.0946%
     Max |d(i,j)-d*(j,i)| =  0.000177
     Max |d(i,j)-d*(j,i)|/|d(i,j)|:   0.0946%
     Max |d(i,j)-d*(j,i)| =  0.000177
     Max |d(i,j)-d*(j,i)|/|d(i,j)|:   0.0946%
     Max |d(i,j)-d*(j,i)| =  0.000177
     Max |d(i,j)-d*(j,i)|/|d(i,j)|:   0.0946%
     Max |d(i,j)-d*(j,i)| =  0.000177
     Max |d(i,j)-d*(j,i)|/|d(i,j)|:   0.0946%
     Max |d(i,j)-d*(j,i)| =  0.000177
     Max |d(i,j)-d*(j,i)|/|d(i,j)|:   0.0946%
     Max |d(i,j)-d*(j,i)| =  0.000177
     Max |d(i,j)-d*(j,i)|/|d(i,j)|:   0.0946%
     Max |d(i,j)-d*(j,i)| =  0.000177
     Max |d(i,j)-d*(j,i)|/|d(i,j)|:   0.0945%
     Max |d(i,j)-d*(j,i)| =  0.000177
     Max |d(i,j)-d*(j,i)|/|d(i,j)|:   0.0946%
     Max |d(i,j)-d*(j,i)| =  0.000177
     Max |d(i,j)-d*(j,i)|/|d(i,j)|:   0.0946%
     Max |d(i,j)-d*(j,i)| =  0.000177
     Max |d(i,j)-d*(j,i)|/|d(i,j)|:   0.0946%
     Max |d(i,j)-d*(j,i)| =  0.000177
     Max |d(i,j)-d*(j,i)|/|d(i,j)|:   0.0946%
     Max |d(i,j)-d*(j,i)| =  0.000177
     Max |d(i,j)-d*(j,i)|/|d(i,j)|:   0.0946%
     Max |d(i,j)-d*(j,i)| =  0.000177
     Max |d(i,j)-d*(j,i)|/|d(i,j)|:   0.0945%
     Max |d(i,j)-d*(j,i)| =  0.000177
     Max |d(i,j)-d*(j,i)|/|d(i,j)|:   0.0946%
     Max |d(i,j)-d*(j,i)| =  0.000177
     Max |d(i,j)-d*(j,i)|/|d(i,j)|:   0.0946%
     Max |d(i,j)-d*(j,i)| =  0.000177
     Max |d(i,j)-d*(j,i)|/|d(i,j)|:   0.0946%
     Max |d(i,j)-d*(j,i)| =  0.000177
     Max |d(i,j)-d*(j,i)|/|d(i,j)|:   0.0946%
     Max |d(i,j)-d*(j,i)| =  0.000177
     Max |d(i,j)-d*(j,i)|/|d(i,j)|:   0.0945%
     Max |d(i,j)-d*(j,i)| =  0.000177
     Max |d(i,j)-d*(j,i)|/|d(i,j)|:   0.0946%
     Max |d(i,j)-d*(j,i)| =  0.000177
     Max |d(i,j)-d*(j,i)|/|d(i,j)|:   0.0945%
     Max |d(i,j)-d*(j,i)| =  0.000177
     Max |d(i,j)-d*(j,i)|/|d(i,j)|:   0.0945%
     Max |d(i,j)-d*(j,i)| =  0.000177
     Max |d(i,j)-d*(j,i)|/|d(i,j)|:   0.0945%
     Max |d(i,j)-d*(j,i)| =  0.000177
     Max |d(i,j)-d*(j,i)|/|d(i,j)|:   0.0946%
     Max |d(i,j)-d*(j,i)| =  0.000177
     Max |d(i,j)-d*(j,i)|/|d(i,j)|:   0.0946%
     Max |d(i,j)-d*(j,i)| =  0.000177
     Max |d(i,j)-d*(j,i)|/|d(i,j)|:   0.0946%
     Max |d(i,j)-d*(j,i)| =  0.000177
     Max |d(i,j)-d*(j,i)|/|d(i,j)|:   0.0946%
     Max |d(i,j)-d*(j,i)| =  0.000177
     Max |d(i,j)-d*(j,i)|/|d(i,j)|:   0.0946%
     Max |d(i,j)-d*(j,i)| =  0.000177
     Max |d(i,j)-d*(j,i)|/|d(i,j)|:   0.0946%
     Max |d(i,j)-d*(j,i)| =  0.000177
     Max |d(i,j)-d*(j,i)|/|d(i,j)|:   0.0946%
     Max |d(i,j)-d*(j,i)| =  0.000177
     Max |d(i,j)-d*(j,i)|/|d(i,j)|:   0.0946%
     Max |d(i,j)-d*(j,i)| =  0.000177
     Max |d(i,j)-d*(j,i)|/|d(i,j)|:   0.0946%
     Max |d(i,j)-d*(j,i)| =  0.000177
     Max |d(i,j)-d*(j,i)|/|d(i,j)|:   0.0946%
     Max |d(i,j)-d*(j,i)| =  0.000177
     Max |d(i,j)-d*(j,i)|/|d(i,j)|:   0.0946%
     Max |d(i,j)-d*(j,i)| =  0.000177
     Max |d(i,j)-d*(j,i)|/|d(i,j)|:   0.0945%
     Max |d(i,j)-d*(j,i)| =  0.000177
     Max |d(i,j)-d*(j,i)|/|d(i,j)|:   0.0945%
     Max |d(i,j)-d*(j,i)| =  0.000177
     Max |d(i,j)-d*(j,i)|/|d(i,j)|:   0.0945%
     Max |d(i,j)-d*(j,i)| =  0.000177
     Max |d(i,j)-d*(j,i)|/|d(i,j)|:   0.0945%
     Max |d(i,j)-d*(j,i)| =  0.000177
     Max |d(i,j)-d*(j,i)|/|d(i,j)|:   0.0945%
     Max |d(i,j)-d*(j,i)| =  0.000177
     Max |d(i,j)-d*(j,i)|/|d(i,j)|:   0.0945%
     Max |d(i,j)-d*(j,i)| =  0.000177
     Max |d(i,j)-d*(j,i)|/|d(i,j)|:   0.0945%
     Max |d(i,j)-d*(j,i)| =  0.000177
     Max |d(i,j)-d*(j,i)|/|d(i,j)|:   0.0945%
     Max |d(i,j)-d*(j,i)| =  0.000177
     Max |d(i,j)-d*(j,i)|/|d(i,j)|:   0.0945%
     Max |d(i,j)-d*(j,i)| =  0.000177
     Max |d(i,j)-d*(j,i)|/|d(i,j)|:   0.0945%
     Max |d(i,j)-d*(j,i)| =  0.000177
     Max |d(i,j)-d*(j,i)|/|d(i,j)|:   0.0945%
     Max |d(i,j)-d*(j,i)| =  0.000177
     Max |d(i,j)-d*(j,i)|/|d(i,j)|:   0.0945%
     Max |d(i,j)-d*(j,i)| =  0.000177
     Max |d(i,j)-d*(j,i)|/|d(i,j)|:   0.0945%
     Max |d(i,j)-d*(j,i)| =  0.000177
     Max |d(i,j)-d*(j,i)|/|d(i,j)|:   0.0945%
     Max |d(i,j)-d*(j,i)| =  0.000177
     Max |d(i,j)-d*(j,i)|/|d(i,j)|:   0.0945%
     Max |d(i,j)-d*(j,i)| =  0.000177
     Max |d(i,j)-d*(j,i)|/|d(i,j)|:   0.0945%
     Max |d(i,j)-d*(j,i)| =  0.000177
     Max |d(i,j)-d*(j,i)|/|d(i,j)|:   0.0945%
     Max |d(i,j)-d*(j,i)| =  0.000177
     Max |d(i,j)-d*(j,i)|/|d(i,j)|:   0.0945%
     Max |d(i,j)-d*(j,i)| =  0.000177
     Max |d(i,j)-d*(j,i)|/|d(i,j)|:   0.0945%
     Max |d(i,j)-d*(j,i)| =  0.000177
     Max |d(i,j)-d*(j,i)|/|d(i,j)|:   0.0945%
     Max |d(i,j)-d*(j,i)| =  0.000177
     Max |d(i,j)-d*(j,i)|/|d(i,j)|:   0.0945%
     Max |d(i,j)-d*(j,i)| =  0.000177
     Max |d(i,j)-d*(j,i)|/|d(i,j)|:   0.0945%
     Max |d(i,j)-d*(j,i)| =  0.000177
     Max |d(i,j)-d*(j,i)|/|d(i,j)|:   0.0945%
     Max |d(i,j)-d*(j,i)| =  0.000177
     Max |d(i,j)-d*(j,i)|/|d(i,j)|:   0.0945%
     Max |d(i,j)-d*(j,i)| =  0.000177
     Max |d(i,j)-d*(j,i)|/|d(i,j)|:   0.0945%
     Max |d(i,j)-d*(j,i)| =  0.000177
     Max |d(i,j)-d*(j,i)|/|d(i,j)|:   0.0945%
     Max |d(i,j)-d*(j,i)| =  0.000177
     Max |d(i,j)-d*(j,i)|/|d(i,j)|:   0.0945%
     Max |d(i,j)-d*(j,i)| =  0.000177
     Max |d(i,j)-d*(j,i)|/|d(i,j)|:   0.0945%
     Max |d(i,j)-d*(j,i)| =  0.000177
     Max |d(i,j)-d*(j,i)|/|d(i,j)|:   0.0945%
     Max |d(i,j)-d*(j,i)| =  0.000177
     Max |d(i,j)-d*(j,i)|/|d(i,j)|:   0.0945%
     Max |d(i,j)-d*(j,i)| =  0.000177
     Max |d(i,j)-d*(j,i)|/|d(i,j)|:   0.0945%
     Max |d(i,j)-d*(j,i)| =  0.000177
     Max |d(i,j)-d*(j,i)|/|d(i,j)|:   0.0945%
     Max |d(i,j)-d*(j,i)| =  0.000177
     Max |d(i,j)-d*(j,i)|/|d(i,j)|:   0.0945%
     Max |d(i,j)-d*(j,i)| =  0.000177
     Max |d(i,j)-d*(j,i)|/|d(i,j)|:   0.0945%
     Max |d(i,j)-d*(j,i)| =  0.000177
     Max |d(i,j)-d*(j,i)|/|d(i,j)|:   0.0945%
     Max |d(i,j)-d*(j,i)| =  0.000177
     Max |d(i,j)-d*(j,i)|/|d(i,j)|:   0.0945%
     Max |d(i,j)-d*(j,i)| =  0.000177
     Max |d(i,j)-d*(j,i)|/|d(i,j)|:   0.0945%
     Max |d(i,j)-d*(j,i)| =  0.000177
     Max |d(i,j)-d*(j,i)|/|d(i,j)|:   0.0945%
     Max |d(i,j)-d*(j,i)| =  0.000177
     Max |d(i,j)-d*(j,i)|/|d(i,j)|:   0.0945%
     Max |d(i,j)-d*(j,i)| =  0.000177
     Max |d(i,j)-d*(j,i)|/|d(i,j)|:   0.0945%
     Max |d(i,j)-d*(j,i)| =  0.000177
     Max |d(i,j)-d*(j,i)|/|d(i,j)|:   0.0945%
     Max |d(i,j)-d*(j,i)| =  0.000177
     Max |d(i,j)-d*(j,i)|/|d(i,j)|:   0.0945%
     Max |d(i,j)-d*(j,i)| =  0.000177
     Max |d(i,j)-d*(j,i)|/|d(i,j)|:   0.0945%
     Max |d(i,j)-d*(j,i)| =  0.000177
     Max |d(i,j)-d*(j,i)|/|d(i,j)|:   0.0945%
     Max |d(i,j)-d*(j,i)| =  0.000177
     Max |d(i,j)-d*(j,i)|/|d(i,j)|:   0.0945%
     Max |d(i,j)-d*(j,i)| =  0.000177
     Max |d(i,j)-d*(j,i)|/|d(i,j)|:   0.0945%
     Max |d(i,j)-d*(j,i)| =  0.000177
     Max |d(i,j)-d*(j,i)|/|d(i,j)|:   0.0945%
     Max |d(i,j)-d*(j,i)| =  0.000177
     Max |d(i,j)-d*(j,i)|/|d(i,j)|:   0.0945%
     Max |d(i,j)-d*(j,i)| =  0.000177
     Max |d(i,j)-d*(j,i)|/|d(i,j)|:   0.0945%
     Max |d(i,j)-d*(j,i)| =  0.000177
     Max |d(i,j)-d*(j,i)|/|d(i,j)|:   0.0945%
     Max |d(i,j)-d*(j,i)| =  0.000177
     Max |d(i,j)-d*(j,i)|/|d(i,j)|:   0.0945%
     Max |d(i,j)-d*(j,i)| =  0.000177
     Max |d(i,j)-d*(j,i)|/|d(i,j)|:   0.0945%
     Max |d(i,j)-d*(j,i)| =  0.000177
     Max |d(i,j)-d*(j,i)|/|d(i,j)|:   0.0945%
     Max |d(i,j)-d*(j,i)| =  0.000177
     Max |d(i,j)-d*(j,i)|/|d(i,j)|:   0.0945%
     Max |d(i,j)-d*(j,i)| =  0.000177
     Max |d(i,j)-d*(j,i)|/|d(i,j)|:   0.0945%
     Max |d(i,j)-d*(j,i)| =  0.000177
     Max |d(i,j)-d*(j,i)|/|d(i,j)|:   0.0945%
     Max |d(i,j)-d*(j,i)| =  0.000177
     Max |d(i,j)-d*(j,i)|/|d(i,j)|:   0.0945%
     Max |d(i,j)-d*(j,i)| =  0.000177
     Max |d(i,j)-d*(j,i)|/|d(i,j)|:   0.0945%
     Max |d(i,j)-d*(j,i)| =  0.000177
     Max |d(i,j)-d*(j,i)|/|d(i,j)|:   0.0945%
     Max |d(i,j)-d*(j,i)| =  0.000177
     Max |d(i,j)-d*(j,i)|/|d(i,j)|:   0.0945%
     Max |d(i,j)-d*(j,i)| =  0.000177
     Max |d(i,j)-d*(j,i)|/|d(i,j)|:   0.0945%
     Max |d(i,j)-d*(j,i)| =  0.000177
     Max |d(i,j)-d*(j,i)|/|d(i,j)|:   0.0945%
     Max |d(i,j)-d*(j,i)| =  0.000177
     Max |d(i,j)-d*(j,i)|/|d(i,j)|:   0.0945%
     Max |d(i,j)-d*(j,i)| =  0.000177
     Max |d(i,j)-d*(j,i)|/|d(i,j)|:   0.0945%
     Max |d(i,j)-d*(j,i)| =  0.000177
     Max |d(i,j)-d*(j,i)|/|d(i,j)|:   0.0945%
     Max |d(i,j)-d*(j,i)| =  0.000177
     Max |d(i,j)-d*(j,i)|/|d(i,j)|:   0.0945%
     Max |d(i,j)-d*(j,i)| =  0.000177
     Max |d(i,j)-d*(j,i)|/|d(i,j)|:   0.0945%
     Max |d(i,j)-d*(j,i)| =  0.000177
     Max |d(i,j)-d*(j,i)|/|d(i,j)|:   0.0945%
     Max |d(i,j)-d*(j,i)| =  0.000177
     Max |d(i,j)-d*(j,i)|/|d(i,j)|:   0.0945%
     Max |d(i,j)-d*(j,i)| =  0.000177
     Max |d(i,j)-d*(j,i)|/|d(i,j)|:   0.0945%
     Max |d(i,j)-d*(j,i)| =  0.000177
     Max |d(i,j)-d*(j,i)|/|d(i,j)|:   0.0945%
     Max |d(i,j)-d*(j,i)| =  0.000177
     Max |d(i,j)-d*(j,i)|/|d(i,j)|:   0.0945%
     Max |d(i,j)-d*(j,i)| =  0.000177
     Max |d(i,j)-d*(j,i)|/|d(i,j)|:   0.0945%
     Max |d(i,j)-d*(j,i)| =  0.000177
     Max |d(i,j)-d*(j,i)|/|d(i,j)|:   0.0945%
     Max |d(i,j)-d*(j,i)| =  0.000177
     Max |d(i,j)-d*(j,i)|/|d(i,j)|:   0.0945%
     Max |d(i,j)-d*(j,i)| =  0.000177
     Max |d(i,j)-d*(j,i)|/|d(i,j)|:   0.0945%
     Max |d(i,j)-d*(j,i)| =  0.000177
     Max |d(i,j)-d*(j,i)|/|d(i,j)|:   0.0945%
     Max |d(i,j)-d*(j,i)| =  0.000177
     Max |d(i,j)-d*(j,i)|/|d(i,j)|:   0.0945%
     Max |d(i,j)-d*(j,i)| =  0.000177
     Max |d(i,j)-d*(j,i)|/|d(i,j)|:   0.0945%
     Max |d(i,j)-d*(j,i)| =  0.000177
     Max |d(i,j)-d*(j,i)|/|d(i,j)|:   0.0945%
     Max |d(i,j)-d*(j,i)| =  0.000177
     Max |d(i,j)-d*(j,i)|/|d(i,j)|:   0.0945%
     Max |d(i,j)-d*(j,i)| =  0.000177
     Max |d(i,j)-d*(j,i)|/|d(i,j)|:   0.0945%
     Max |d(i,j)-d*(j,i)| =  0.000177
     Max |d(i,j)-d*(j,i)|/|d(i,j)|:   0.0945%
     Max |d(i,j)-d*(j,i)| =  0.000177
     Max |d(i,j)-d*(j,i)|/|d(i,j)|:   0.0945%
     Max |d(i,j)-d*(j,i)| =  0.000177
     Max |d(i,j)-d*(j,i)|/|d(i,j)|:   0.0946%
     Max |d(i,j)-d*(j,i)| =  0.000177
     Max |d(i,j)-d*(j,i)|/|d(i,j)|:   0.0946%
     Max |d(i,j)-d*(j,i)| =  0.000177
     Max |d(i,j)-d*(j,i)|/|d(i,j)|:   0.0946%
     Max |d(i,j)-d*(j,i)| =  0.000177
     Max |d(i,j)-d*(j,i)|/|d(i,j)|:   0.0946%
     Max |d(i,j)-d*(j,i)| =  0.000177
     Max |d(i,j)-d*(j,i)|/|d(i,j)|:   0.0946%
     Max |d(i,j)-d*(j,i)| =  0.000177
     Max |d(i,j)-d*(j,i)|/|d(i,j)|:   0.0946%
     Max |d(i,j)-d*(j,i)| =  0.000177
     Max |d(i,j)-d*(j,i)|/|d(i,j)|:   0.0946%
     Max |d(i,j)-d*(j,i)| =  0.000177
     Max |d(i,j)-d*(j,i)|/|d(i,j)|:   0.0946%
     Max |d(i,j)-d*(j,i)| =  0.000177
     Max |d(i,j)-d*(j,i)|/|d(i,j)|:   0.0947%
     Max |d(i,j)-d*(j,i)| =  0.000177
     Max |d(i,j)-d*(j,i)|/|d(i,j)|:   0.0947%
     Max |d(i,j)-d*(j,i)| =  0.000177
     Max |d(i,j)-d*(j,i)|/|d(i,j)|:   0.0947%
     Max |d(i,j)-d*(j,i)| =  0.000177
     Max |d(i,j)-d*(j,i)|/|d(i,j)|:   0.0947%
     Max |d(i,j)-d*(j,i)| =  0.000177
     Max |d(i,j)-d*(j,i)|/|d(i,j)|:   0.0947%
     Max |d(i,j)-d*(j,i)| =  0.000177
     Max |d(i,j)-d*(j,i)|/|d(i,j)|:   0.0948%
     Max |d(i,j)-d*(j,i)| =  0.000177
     Max |d(i,j)-d*(j,i)|/|d(i,j)|:   0.0948%
     Max |d(i,j)-d*(j,i)| =  0.000177
     Max |d(i,j)-d*(j,i)|/|d(i,j)|:   0.0948%
     Max |d(i,j)-d*(j,i)| =  0.000177
     Max |d(i,j)-d*(j,i)|/|d(i,j)|:   0.0948%
     Max |d(i,j)-d*(j,i)| =  0.000177
     Max |d(i,j)-d*(j,i)|/|d(i,j)|:   0.0949%
     Max |d(i,j)-d*(j,i)| =  0.000177
     Max |d(i,j)-d*(j,i)|/|d(i,j)|:   0.0949%
     Max |d(i,j)-d*(j,i)| =  0.000177
     Max |d(i,j)-d*(j,i)|/|d(i,j)|:   0.0949%
     Max |d(i,j)-d*(j,i)| =  0.000177
     Max |d(i,j)-d*(j,i)|/|d(i,j)|:   0.0949%
     Max |d(i,j)-d*(j,i)| =  0.000177
     Max |d(i,j)-d*(j,i)|/|d(i,j)|:   0.0950%
     Max |d(i,j)-d*(j,i)| =  0.000177
     Max |d(i,j)-d*(j,i)|/|d(i,j)|:   0.0950%
     Max |d(i,j)-d*(j,i)| =  0.000177
     Max |d(i,j)-d*(j,i)|/|d(i,j)|:   0.0950%
     Max |d(i,j)-d*(j,i)| =  0.000177
     Max |d(i,j)-d*(j,i)|/|d(i,j)|:   0.0950%
     Max |d(i,j)-d*(j,i)| =  0.000177
     Max |d(i,j)-d*(j,i)|/|d(i,j)|:   0.0951%
     Max |d(i,j)-d*(j,i)| =  0.000177
     Max |d(i,j)-d*(j,i)|/|d(i,j)|:   0.0951%
     Max |d(i,j)-d*(j,i)| =  0.000177
     Max |d(i,j)-d*(j,i)|/|d(i,j)|:   0.0951%
     Max |d(i,j)-d*(j,i)| =  0.000177
     Max |d(i,j)-d*(j,i)|/|d(i,j)|:   0.0952%
     Max |d(i,j)-d*(j,i)| =  0.000177
     Max |d(i,j)-d*(j,i)|/|d(i,j)|:   0.0952%
     Max |d(i,j)-d*(j,i)| =  0.000177
     Max |d(i,j)-d*(j,i)|/|d(i,j)|:   0.0952%
     Max |d(i,j)-d*(j,i)| =  0.000177
     Max |d(i,j)-d*(j,i)|/|d(i,j)|:   0.0953%
     Max |d(i,j)-d*(j,i)| =  0.000177
     Max |d(i,j)-d*(j,i)|/|d(i,j)|:   0.0953%
     Max |d(i,j)-d*(j,i)| =  0.000177
     Max |d(i,j)-d*(j,i)|/|d(i,j)|:   0.0953%
     Max |d(i,j)-d*(j,i)| =  0.000177
     Max |d(i,j)-d*(j,i)|/|d(i,j)|:   0.0954%
     Max |d(i,j)-d*(j,i)| =  0.000177
     Max |d(i,j)-d*(j,i)|/|d(i,j)|:   0.0954%
     Max |d(i,j)-d*(j,i)| =  0.000177
     Max |d(i,j)-d*(j,i)|/|d(i,j)|:   0.0954%
     Max |d(i,j)-d*(j,i)| =  0.000177
     Max |d(i,j)-d*(j,i)|/|d(i,j)|:   0.0955%
     Max |d(i,j)-d*(j,i)| =  0.000177
     Max |d(i,j)-d*(j,i)|/|d(i,j)|:   0.0955%
     Max |d(i,j)-d*(j,i)| =  0.000177
     Max |d(i,j)-d*(j,i)|/|d(i,j)|:   0.0956%
     Max |d(i,j)-d*(j,i)| =  0.000177
     Max |d(i,j)-d*(j,i)|/|d(i,j)|:   0.0956%
     Max |d(i,j)-d*(j,i)| =  0.000177
     Max |d(i,j)-d*(j,i)|/|d(i,j)|:   0.0956%
     Max |d(i,j)-d*(j,i)| =  0.000177
     Max |d(i,j)-d*(j,i)|/|d(i,j)|:   0.0957%
     Max |d(i,j)-d*(j,i)| =  0.000177
     Max |d(i,j)-d*(j,i)|/|d(i,j)|:   0.0957%
     Max |d(i,j)-d*(j,i)| =  0.000177
     Max |d(i,j)-d*(j,i)|/|d(i,j)|:   0.0958%
     Max |d(i,j)-d*(j,i)| =  0.000177
     Max |d(i,j)-d*(j,i)|/|d(i,j)|:   0.0958%
     Max |d(i,j)-d*(j,i)| =  0.000177
     Max |d(i,j)-d*(j,i)|/|d(i,j)|:   0.0958%
     Max |d(i,j)-d*(j,i)| =  0.000177
     Max |d(i,j)-d*(j,i)|/|d(i,j)|:   0.0959%
     Max |d(i,j)-d*(j,i)| =  0.000177
     Max |d(i,j)-d*(j,i)|/|d(i,j)|:   0.0959%
     Max |d(i,j)-d*(j,i)| =  0.000177
     Max |d(i,j)-d*(j,i)|/|d(i,j)|:   0.0960%
     Max |d(i,j)-d*(j,i)| =  0.000177
     Max |d(i,j)-d*(j,i)|/|d(i,j)|:   0.0960%
     Max |d(i,j)-d*(j,i)| =  0.000177
     Max |d(i,j)-d*(j,i)|/|d(i,j)|:   0.0961%
     Max |d(i,j)-d*(j,i)| =  0.000177
     Max |d(i,j)-d*(j,i)|/|d(i,j)|:   0.0961%
     Max |d(i,j)-d*(j,i)| =  0.000177
     Max |d(i,j)-d*(j,i)|/|d(i,j)|:   0.0962%
     Max |d(i,j)-d*(j,i)| =  0.000177
     Max |d(i,j)-d*(j,i)|/|d(i,j)|:   0.0962%
     Max |d(i,j)-d*(j,i)| =  0.000177
     Max |d(i,j)-d*(j,i)|/|d(i,j)|:   0.0963%
     Max |d(i,j)-d*(j,i)| =  0.000177
     Max |d(i,j)-d*(j,i)|/|d(i,j)|:   0.0963%
     Max |d(i,j)-d*(j,i)| =  0.000177
     Max |d(i,j)-d*(j,i)|/|d(i,j)|:   0.0963%
     Max |d(i,j)-d*(j,i)| =  0.000177
     Max |d(i,j)-d*(j,i)|/|d(i,j)|:   0.0964%
     Max |d(i,j)-d*(j,i)| =  0.000177
     Max |d(i,j)-d*(j,i)|/|d(i,j)|:   0.0964%
     Max |d(i,j)-d*(j,i)| =  0.000177
     Max |d(i,j)-d*(j,i)|/|d(i,j)|:   0.0965%
     Max |d(i,j)-d*(j,i)| =  0.000177
     Max |d(i,j)-d*(j,i)|/|d(i,j)|:   0.0965%
     Max |d(i,j)-d*(j,i)| =  0.000177
     Max |d(i,j)-d*(j,i)|/|d(i,j)|:   0.0966%
     Max |d(i,j)-d*(j,i)| =  0.000177
     Max |d(i,j)-d*(j,i)|/|d(i,j)|:   0.0967%
     Max |d(i,j)-d*(j,i)| =  0.000177
     Max |d(i,j)-d*(j,i)|/|d(i,j)|:   0.0967%
     Max |d(i,j)-d*(j,i)| =  0.000177
     Max |d(i,j)-d*(j,i)|/|d(i,j)|:   0.0968%
     Max |d(i,j)-d*(j,i)| =  0.000177
     Max |d(i,j)-d*(j,i)|/|d(i,j)|:   0.0968%
     Max |d(i,j)-d*(j,i)| =  0.000177
     Max |d(i,j)-d*(j,i)|/|d(i,j)|:   0.0969%
     Max |d(i,j)-d*(j,i)| =  0.000177
     Max |d(i,j)-d*(j,i)|/|d(i,j)|:   0.0969%
     Max |d(i,j)-d*(j,i)| =  0.000177
     Max |d(i,j)-d*(j,i)|/|d(i,j)|:   0.0970%
     Max |d(i,j)-d*(j,i)| =  0.000177
     Max |d(i,j)-d*(j,i)|/|d(i,j)|:   0.0970%
     Max |d(i,j)-d*(j,i)| =  0.000177
     Max |d(i,j)-d*(j,i)|/|d(i,j)|:   0.0971%
     Max |d(i,j)-d*(j,i)| =  0.000177
     Max |d(i,j)-d*(j,i)|/|d(i,j)|:   0.0971%
     Max |d(i,j)-d*(j,i)| =  0.000177
     Max |d(i,j)-d*(j,i)|/|d(i,j)|:   0.0972%
     Max |d(i,j)-d*(j,i)| =  0.000177
     Max |d(i,j)-d*(j,i)|/|d(i,j)|:   0.0972%
     Max |d(i,j)-d*(j,i)| =  0.000177
     Max |d(i,j)-d*(j,i)|/|d(i,j)|:   0.0973%
     Max |d(i,j)-d*(j,i)| =  0.000177
     Max |d(i,j)-d*(j,i)|/|d(i,j)|:   0.0974%
     Max |d(i,j)-d*(j,i)| =  0.000177
     Max |d(i,j)-d*(j,i)|/|d(i,j)|:   0.0974%
     Max |d(i,j)-d*(j,i)| =  0.000177
     Max |d(i,j)-d*(j,i)|/|d(i,j)|:   0.0975%
     Max |d(i,j)-d*(j,i)| =  0.000177
     Max |d(i,j)-d*(j,i)|/|d(i,j)|:   0.0975%
     Max |d(i,j)-d*(j,i)| =  0.000177
     Max |d(i,j)-d*(j,i)|/|d(i,j)|:   0.0976%
     Max |d(i,j)-d*(j,i)| =  0.000177
     Max |d(i,j)-d*(j,i)|/|d(i,j)|:   0.0976%
     Max |d(i,j)-d*(j,i)| =  0.000177
     Max |d(i,j)-d*(j,i)|/|d(i,j)|:   0.0977%
     Max |d(i,j)-d*(j,i)| =  0.000177
     Max |d(i,j)-d*(j,i)|/|d(i,j)|:   0.0978%
     Max |d(i,j)-d*(j,i)| =  0.000177
     Max |d(i,j)-d*(j,i)|/|d(i,j)|:   0.0978%
     Max |d(i,j)-d*(j,i)| =  0.000177
     Max |d(i,j)-d*(j,i)|/|d(i,j)|:   0.0979%
     Max |d(i,j)-d*(j,i)| =  0.000177
     Max |d(i,j)-d*(j,i)|/|d(i,j)|:   0.0979%
     Max |d(i,j)-d*(j,i)| =  0.000177
     Max |d(i,j)-d*(j,i)|/|d(i,j)|:   0.0980%
     Max |d(i,j)-d*(j,i)| =  0.000177
     Max |d(i,j)-d*(j,i)|/|d(i,j)|:   0.0980%
     Max |d(i,j)-d*(j,i)| =  0.000177
     Max |d(i,j)-d*(j,i)|/|d(i,j)|:   0.0981%
     Max |d(i,j)-d*(j,i)| =  0.000177
     Max |d(i,j)-d*(j,i)|/|d(i,j)|:   0.0982%
     Max |d(i,j)-d*(j,i)| =  0.000177
     Max |d(i,j)-d*(j,i)|/|d(i,j)|:   0.0982%
     Max |d(i,j)-d*(j,i)| =  0.000177
     Max |d(i,j)-d*(j,i)|/|d(i,j)|:   0.0983%
     Max |d(i,j)-d*(j,i)| =  0.000177
     Max |d(i,j)-d*(j,i)|/|d(i,j)|:   0.0983%
     Max |d(i,j)-d*(j,i)| =  0.000177
     Max |d(i,j)-d*(j,i)|/|d(i,j)|:   0.0984%
     Max |d(i,j)-d*(j,i)| =  0.000177
     Max |d(i,j)-d*(j,i)|/|d(i,j)|:   0.0985%
     Max |d(i,j)-d*(j,i)| =  0.000177
     Max |d(i,j)-d*(j,i)|/|d(i,j)|:   0.0985%
     Max |d(i,j)-d*(j,i)| =  0.000177
     Max |d(i,j)-d*(j,i)|/|d(i,j)|:   0.0986%
     Max |d(i,j)-d*(j,i)| =  0.000177
     Max |d(i,j)-d*(j,i)|/|d(i,j)|:   0.0986%
     Max |d(i,j)-d*(j,i)| =  0.000177
     Max |d(i,j)-d*(j,i)|/|d(i,j)|:   0.0987%
     Max |d(i,j)-d*(j,i)| =  0.000177
     Max |d(i,j)-d*(j,i)|/|d(i,j)|:   0.0988%
     Max |d(i,j)-d*(j,i)| =  0.000177
     Max |d(i,j)-d*(j,i)|/|d(i,j)|:   0.0988%
     Max |d(i,j)-d*(j,i)| =  0.000177
     Max |d(i,j)-d*(j,i)|/|d(i,j)|:   0.0989%
     Max |d(i,j)-d*(j,i)| =  0.000177
     Max |d(i,j)-d*(j,i)|/|d(i,j)|:   0.0989%
     Max |d(i,j)-d*(j,i)| =  0.000177
     Max |d(i,j)-d*(j,i)|/|d(i,j)|:   0.0990%
     Max |d(i,j)-d*(j,i)| =  0.000177
     Max |d(i,j)-d*(j,i)|/|d(i,j)|:   0.0991%
     Max |d(i,j)-d*(j,i)| =  0.000177
     Max |d(i,j)-d*(j,i)|/|d(i,j)|:   0.0991%
     Max |d(i,j)-d*(j,i)| =  0.000177
     Max |d(i,j)-d*(j,i)|/|d(i,j)|:   0.0992%
     Max |d(i,j)-d*(j,i)| =  0.000177
     Max |d(i,j)-d*(j,i)|/|d(i,j)|:   0.0992%
     Max |d(i,j)-d*(j,i)| =  0.000177
     Max |d(i,j)-d*(j,i)|/|d(i,j)|:   0.0993%
     Max |d(i,j)-d*(j,i)| =  0.000177
     Max |d(i,j)-d*(j,i)|/|d(i,j)|:   0.0994%
     Max |d(i,j)-d*(j,i)| =  0.000177
     Max |d(i,j)-d*(j,i)|/|d(i,j)|:   0.0994%
     Max |d(i,j)-d*(j,i)| =  0.000177
     Max |d(i,j)-d*(j,i)|/|d(i,j)|:   0.0995%
     Max |d(i,j)-d*(j,i)| =  0.000177
     Max |d(i,j)-d*(j,i)|/|d(i,j)|:   0.0995%
     Max |d(i,j)-d*(j,i)| =  0.000177
     Max |d(i,j)-d*(j,i)|/|d(i,j)|:   0.0996%
     Max |d(i,j)-d*(j,i)| =  0.000177
     Max |d(i,j)-d*(j,i)|/|d(i,j)|:   0.0997%
     Max |d(i,j)-d*(j,i)| =  0.000177
     Max |d(i,j)-d*(j,i)|/|d(i,j)|:   0.0997%
     Max |d(i,j)-d*(j,i)| =  0.000177
     Max |d(i,j)-d*(j,i)|/|d(i,j)|:   0.0998%
     Max |d(i,j)-d*(j,i)| =  0.000177
     Max |d(i,j)-d*(j,i)|/|d(i,j)|:   0.0999%
     Max |d(i,j)-d*(j,i)| =  0.000177
     Max |d(i,j)-d*(j,i)|/|d(i,j)|:   0.0999%
     Max |d(i,j)-d*(j,i)| =  0.000177
     Max |d(i,j)-d*(j,i)|/|d(i,j)|:   0.1000%
     Max |d(i,j)-d*(j,i)| =  0.000177
     Max |d(i,j)-d*(j,i)|/|d(i,j)|:   0.1000%
     Max |d(i,j)-d*(j,i)| =  0.000177
     Max |d(i,j)-d*(j,i)|/|d(i,j)|:   0.1001%
     Max |d(i,j)-d*(j,i)| =  0.000177
     Max |d(i,j)-d*(j,i)|/|d(i,j)|:   0.1002%
     Max |d(i,j)-d*(j,i)| =  0.000177
     Max |d(i,j)-d*(j,i)|/|d(i,j)|:   0.1002%
     Max |d(i,j)-d*(j,i)| =  0.000177
     Max |d(i,j)-d*(j,i)|/|d(i,j)|:   0.1003%
     Max |d(i,j)-d*(j,i)| =  0.000177
     Max |d(i,j)-d*(j,i)|/|d(i,j)|:   0.1003%
     Max |d(i,j)-d*(j,i)| =  0.000177
     Max |d(i,j)-d*(j,i)|/|d(i,j)|:   0.1004%
     Max |d(i,j)-d*(j,i)| =  0.000177
     Max |d(i,j)-d*(j,i)|/|d(i,j)|:   0.1004%
     Max |d(i,j)-d*(j,i)| =  0.000177
     Max |d(i,j)-d*(j,i)|/|d(i,j)|:   0.1005%
     Max |d(i,j)-d*(j,i)| =  0.000177
     Max |d(i,j)-d*(j,i)|/|d(i,j)|:   0.1006%
     Max |d(i,j)-d*(j,i)| =  0.000177
     Max |d(i,j)-d*(j,i)|/|d(i,j)|:   0.1006%
     Max |d(i,j)-d*(j,i)| =  0.000177
     Max |d(i,j)-d*(j,i)|/|d(i,j)|:   0.1007%
     Max |d(i,j)-d*(j,i)| =  0.000177
     Max |d(i,j)-d*(j,i)|/|d(i,j)|:   0.1007%
     Max |d(i,j)-d*(j,i)| =  0.000177
     Max |d(i,j)-d*(j,i)|/|d(i,j)|:   0.1008%
     Max |d(i,j)-d*(j,i)| =  0.000177
     Max |d(i,j)-d*(j,i)|/|d(i,j)|:   0.1009%
     Max |d(i,j)-d*(j,i)| =  0.000177
     Max |d(i,j)-d*(j,i)|/|d(i,j)|:   0.1009%
     Max |d(i,j)-d*(j,i)| =  0.000177
     Max |d(i,j)-d*(j,i)|/|d(i,j)|:   0.1010%
     Max |d(i,j)-d*(j,i)| =  0.000177
     Max |d(i,j)-d*(j,i)|/|d(i,j)|:   0.1010%
     Max |d(i,j)-d*(j,i)| =  0.000177
     Max |d(i,j)-d*(j,i)|/|d(i,j)|:   0.1011%
     Max |d(i,j)-d*(j,i)| =  0.000177
     Max |d(i,j)-d*(j,i)|/|d(i,j)|:   0.1011%
     Max |d(i,j)-d*(j,i)| =  0.000177
     Max |d(i,j)-d*(j,i)|/|d(i,j)|:   0.1012%
     Max |d(i,j)-d*(j,i)| =  0.000177
     Max |d(i,j)-d*(j,i)|/|d(i,j)|:   0.1013%
     Max |d(i,j)-d*(j,i)| =  0.000177
     Max |d(i,j)-d*(j,i)|/|d(i,j)|:   0.1013%
     Max |d(i,j)-d*(j,i)| =  0.000177
     Max |d(i,j)-d*(j,i)|/|d(i,j)|:   0.1014%
     Max |d(i,j)-d*(j,i)| =  0.000177
     Max |d(i,j)-d*(j,i)|/|d(i,j)|:   0.1014%
     Max |d(i,j)-d*(j,i)| =  0.000177
     Max |d(i,j)-d*(j,i)|/|d(i,j)|:   0.1015%
     Max |d(i,j)-d*(j,i)| =  0.000177
     Max |d(i,j)-d*(j,i)|/|d(i,j)|:   0.1015%
     Max |d(i,j)-d*(j,i)| =  0.000177
     Max |d(i,j)-d*(j,i)|/|d(i,j)|:   0.1016%
     Max |d(i,j)-d*(j,i)| =  0.000177
     Max |d(i,j)-d*(j,i)|/|d(i,j)|:   0.1016%
     Max |d(i,j)-d*(j,i)| =  0.000177
     Max |d(i,j)-d*(j,i)|/|d(i,j)|:   0.1017%
     Max |d(i,j)-d*(j,i)| =  0.000177
     Max |d(i,j)-d*(j,i)|/|d(i,j)|:   0.1017%
     Max |d(i,j)-d*(j,i)| =  0.000177
     Max |d(i,j)-d*(j,i)|/|d(i,j)|:   0.1018%
     Max |d(i,j)-d*(j,i)| =  0.000177
     Max |d(i,j)-d*(j,i)|/|d(i,j)|:   0.1019%
     Max |d(i,j)-d*(j,i)| =  0.000177
     Max |d(i,j)-d*(j,i)|/|d(i,j)|:   0.1019%
     Max |d(i,j)-d*(j,i)| =  0.000177
     Max |d(i,j)-d*(j,i)|/|d(i,j)|:   0.1020%
     Max |d(i,j)-d*(j,i)| =  0.000177
     Max |d(i,j)-d*(j,i)|/|d(i,j)|:   0.1020%
     Max |d(i,j)-d*(j,i)| =  0.000177
     Max |d(i,j)-d*(j,i)|/|d(i,j)|:   0.1021%
     Max |d(i,j)-d*(j,i)| =  0.000177
     Max |d(i,j)-d*(j,i)|/|d(i,j)|:   0.1021%
     Max |d(i,j)-d*(j,i)| =  0.000177
     Max |d(i,j)-d*(j,i)|/|d(i,j)|:   0.1022%
     Max |d(i,j)-d*(j,i)| =  0.000177
     Max |d(i,j)-d*(j,i)|/|d(i,j)|:   0.1022%
     Max |d(i,j)-d*(j,i)| =  0.000177
     Max |d(i,j)-d*(j,i)|/|d(i,j)|:   0.1023%
     Max |d(i,j)-d*(j,i)| =  0.000177
     Max |d(i,j)-d*(j,i)|/|d(i,j)|:   0.1023%
     Max |d(i,j)-d*(j,i)| =  0.000177
     Max |d(i,j)-d*(j,i)|/|d(i,j)|:   0.1024%
     Max |d(i,j)-d*(j,i)| =  0.000177
     Max |d(i,j)-d*(j,i)|/|d(i,j)|:   0.1024%
     Max |d(i,j)-d*(j,i)| =  0.000177
     Max |d(i,j)-d*(j,i)|/|d(i,j)|:   0.1025%
     Max |d(i,j)-d*(j,i)| =  0.000177
     Max |d(i,j)-d*(j,i)|/|d(i,j)|:   0.1025%
     Max |d(i,j)-d*(j,i)| =  0.000177
     Max |d(i,j)-d*(j,i)|/|d(i,j)|:   0.1026%
     Max |d(i,j)-d*(j,i)| =  0.000177
     Max |d(i,j)-d*(j,i)|/|d(i,j)|:   0.1026%
     Max |d(i,j)-d*(j,i)| =  0.000177
     Max |d(i,j)-d*(j,i)|/|d(i,j)|:   0.1027%
     Max |d(i,j)-d*(j,i)| =  0.000177
     Max |d(i,j)-d*(j,i)|/|d(i,j)|:   0.1027%
     Max |d(i,j)-d*(j,i)| =  0.000177
     Max |d(i,j)-d*(j,i)|/|d(i,j)|:   0.1028%
     Max |d(i,j)-d*(j,i)| =  0.000177
     Max |d(i,j)-d*(j,i)|/|d(i,j)|:   0.1028%
     Max |d(i,j)-d*(j,i)| =  0.000177
     Max |d(i,j)-d*(j,i)|/|d(i,j)|:   0.1029%
     Max |d(i,j)-d*(j,i)| =  0.000177
     Max |d(i,j)-d*(j,i)|/|d(i,j)|:   0.1029%
     Max |d(i,j)-d*(j,i)| =  0.000177
     Max |d(i,j)-d*(j,i)|/|d(i,j)|:   0.1030%
     Max |d(i,j)-d*(j,i)| =  0.000177
     Max |d(i,j)-d*(j,i)|/|d(i,j)|:   0.1030%
     Max |d(i,j)-d*(j,i)| =  0.000177
     Max |d(i,j)-d*(j,i)|/|d(i,j)|:   0.1031%
     Max |d(i,j)-d*(j,i)| =  0.000177
     Max |d(i,j)-d*(j,i)|/|d(i,j)|:   0.1031%
     Max |d(i,j)-d*(j,i)| =  0.000177
     Max |d(i,j)-d*(j,i)|/|d(i,j)|:   0.1031%
     Max |d(i,j)-d*(j,i)| =  0.000177
     Max |d(i,j)-d*(j,i)|/|d(i,j)|:   0.1032%
     Max |d(i,j)-d*(j,i)| =  0.000177
     Max |d(i,j)-d*(j,i)|/|d(i,j)|:   0.1032%
     Max |d(i,j)-d*(j,i)| =  0.000177
     Max |d(i,j)-d*(j,i)|/|d(i,j)|:   0.1033%
     Max |d(i,j)-d*(j,i)| =  0.000177
     Max |d(i,j)-d*(j,i)|/|d(i,j)|:   0.1033%
     Max |d(i,j)-d*(j,i)| =  0.000177
     Max |d(i,j)-d*(j,i)|/|d(i,j)|:   0.1034%
     Max |d(i,j)-d*(j,i)| =  0.000177
     Max |d(i,j)-d*(j,i)|/|d(i,j)|:   0.1034%
     Max |d(i,j)-d*(j,i)| =  0.000177
     Max |d(i,j)-d*(j,i)|/|d(i,j)|:   0.1035%
     Max |d(i,j)-d*(j,i)| =  0.000177
     Max |d(i,j)-d*(j,i)|/|d(i,j)|:   0.1035%
     Max |d(i,j)-d*(j,i)| =  0.000177
     Max |d(i,j)-d*(j,i)|/|d(i,j)|:   0.1035%
     Max |d(i,j)-d*(j,i)| =  0.000177
     Max |d(i,j)-d*(j,i)|/|d(i,j)|:   0.1036%
     Max |d(i,j)-d*(j,i)| =  0.000177
     Max |d(i,j)-d*(j,i)|/|d(i,j)|:   0.1036%
     Max |d(i,j)-d*(j,i)| =  0.000177
     Max |d(i,j)-d*(j,i)|/|d(i,j)|:   0.1037%
     Max |d(i,j)-d*(j,i)| =  0.000177
     Max |d(i,j)-d*(j,i)|/|d(i,j)|:   0.1037%
     Max |d(i,j)-d*(j,i)| =  0.000177
     Max |d(i,j)-d*(j,i)|/|d(i,j)|:   0.1037%
     Max |d(i,j)-d*(j,i)| =  0.000177
     Max |d(i,j)-d*(j,i)|/|d(i,j)|:   0.1038%
     Max |d(i,j)-d*(j,i)| =  0.000177
     Max |d(i,j)-d*(j,i)|/|d(i,j)|:   0.1038%
     Max |d(i,j)-d*(j,i)| =  0.000177
     Max |d(i,j)-d*(j,i)|/|d(i,j)|:   0.1039%
     Max |d(i,j)-d*(j,i)| =  0.000177
     Max |d(i,j)-d*(j,i)|/|d(i,j)|:   0.1039%
     Max |d(i,j)-d*(j,i)| =  0.000177
     Max |d(i,j)-d*(j,i)|/|d(i,j)|:   0.1040%
     Max |d(i,j)-d*(j,i)| =  0.000177
     Max |d(i,j)-d*(j,i)|/|d(i,j)|:   0.1040%
     Max |d(i,j)-d*(j,i)| =  0.000177
     Max |d(i,j)-d*(j,i)|/|d(i,j)|:   0.1040%
     Max |d(i,j)-d*(j,i)| =  0.000177
     Max |d(i,j)-d*(j,i)|/|d(i,j)|:   0.1041%
     Max |d(i,j)-d*(j,i)| =  0.000177
     Max |d(i,j)-d*(j,i)|/|d(i,j)|:   0.1041%
     Max |d(i,j)-d*(j,i)| =  0.000177
     Max |d(i,j)-d*(j,i)|/|d(i,j)|:   0.1041%
     Max |d(i,j)-d*(j,i)| =  0.000177
     Max |d(i,j)-d*(j,i)|/|d(i,j)|:   0.1042%
     Max |d(i,j)-d*(j,i)| =  0.000177
     Max |d(i,j)-d*(j,i)|/|d(i,j)|:   0.1042%
     Max |d(i,j)-d*(j,i)| =  0.000177
     Max |d(i,j)-d*(j,i)|/|d(i,j)|:   0.1043%
     Max |d(i,j)-d*(j,i)| =  0.000177
     Max |d(i,j)-d*(j,i)|/|d(i,j)|:   0.1043%
     Max |d(i,j)-d*(j,i)| =  0.000177
     Max |d(i,j)-d*(j,i)|/|d(i,j)|:   0.1043%
     Max |d(i,j)-d*(j,i)| =  0.000177
     Max |d(i,j)-d*(j,i)|/|d(i,j)|:   0.1044%
     Max |d(i,j)-d*(j,i)| =  0.000177
     Max |d(i,j)-d*(j,i)|/|d(i,j)|:   0.1044%
     Max |d(i,j)-d*(j,i)| =  0.000177
     Max |d(i,j)-d*(j,i)|/|d(i,j)|:   0.1044%
     Max |d(i,j)-d*(j,i)| =  0.000177
     Max |d(i,j)-d*(j,i)|/|d(i,j)|:   0.1045%
     Max |d(i,j)-d*(j,i)| =  0.000177
     Max |d(i,j)-d*(j,i)|/|d(i,j)|:   0.1045%
     Max |d(i,j)-d*(j,i)| =  0.000177
     Max |d(i,j)-d*(j,i)|/|d(i,j)|:   0.1045%
     Max |d(i,j)-d*(j,i)| =  0.000177
     Max |d(i,j)-d*(j,i)|/|d(i,j)|:   0.1046%
     Max |d(i,j)-d*(j,i)| =  0.000177
     Max |d(i,j)-d*(j,i)|/|d(i,j)|:   0.1046%
     Max |d(i,j)-d*(j,i)| =  0.000177
     Max |d(i,j)-d*(j,i)|/|d(i,j)|:   0.1047%
     Max |d(i,j)-d*(j,i)| =  0.000177
     Max |d(i,j)-d*(j,i)|/|d(i,j)|:   0.1047%
     Max |d(i,j)-d*(j,i)| =  0.000177
     Max |d(i,j)-d*(j,i)|/|d(i,j)|:   0.1047%
     Max |d(i,j)-d*(j,i)| =  0.000177
     Max |d(i,j)-d*(j,i)|/|d(i,j)|:   0.1048%
     Max |d(i,j)-d*(j,i)| =  0.000177
     Max |d(i,j)-d*(j,i)|/|d(i,j)|:   0.1048%
     Max |d(i,j)-d*(j,i)| =  0.000177
     Max |d(i,j)-d*(j,i)|/|d(i,j)|:   0.1048%
     Max |d(i,j)-d*(j,i)| =  0.000177
     Max |d(i,j)-d*(j,i)|/|d(i,j)|:   0.1049%
     Max |d(i,j)-d*(j,i)| =  0.000177
     Max |d(i,j)-d*(j,i)|/|d(i,j)|:   0.1049%
     Max |d(i,j)-d*(j,i)| =  0.000177
     Max |d(i,j)-d*(j,i)|/|d(i,j)|:   0.1049%
     Max |d(i,j)-d*(j,i)| =  0.000177
     Max |d(i,j)-d*(j,i)|/|d(i,j)|:   0.1050%
     Max |d(i,j)-d*(j,i)| =  0.000177
     Max |d(i,j)-d*(j,i)|/|d(i,j)|:   0.1050%
     Max |d(i,j)-d*(j,i)| =  0.000177
     Max |d(i,j)-d*(j,i)|/|d(i,j)|:   0.1050%
     Max |d(i,j)-d*(j,i)| =  0.000177
     Max |d(i,j)-d*(j,i)|/|d(i,j)|:   0.1050%
     Max |d(i,j)-d*(j,i)| =  0.000177
     Max |d(i,j)-d*(j,i)|/|d(i,j)|:   0.1051%
     Max |d(i,j)-d*(j,i)| =  0.000177
     Max |d(i,j)-d*(j,i)|/|d(i,j)|:   0.1051%
     Max |d(i,j)-d*(j,i)| =  0.000177
     Max |d(i,j)-d*(j,i)|/|d(i,j)|:   0.1051%
     Max |d(i,j)-d*(j,i)| =  0.000177
     Max |d(i,j)-d*(j,i)|/|d(i,j)|:   0.1052%
     Max |d(i,j)-d*(j,i)| =  0.000177
     Max |d(i,j)-d*(j,i)|/|d(i,j)|:   0.1052%
     Max |d(i,j)-d*(j,i)| =  0.000177
     Max |d(i,j)-d*(j,i)|/|d(i,j)|:   0.1052%
     Max |d(i,j)-d*(j,i)| =  0.000177
     Max |d(i,j)-d*(j,i)|/|d(i,j)|:   0.1053%
     Max |d(i,j)-d*(j,i)| =  0.000177
     Max |d(i,j)-d*(j,i)|/|d(i,j)|:   0.1053%
     Max |d(i,j)-d*(j,i)| =  0.000177
     Max |d(i,j)-d*(j,i)|/|d(i,j)|:   0.1053%
     Max |d(i,j)-d*(j,i)| =  0.000177
     Max |d(i,j)-d*(j,i)|/|d(i,j)|:   0.1053%
     Max |d(i,j)-d*(j,i)| =  0.000177
     Max |d(i,j)-d*(j,i)|/|d(i,j)|:   0.1054%
     Max |d(i,j)-d*(j,i)| =  0.000177
     Max |d(i,j)-d*(j,i)|/|d(i,j)|:   0.1054%
     Max |d(i,j)-d*(j,i)| =  0.000177
     Max |d(i,j)-d*(j,i)|/|d(i,j)|:   0.1054%
     Max |d(i,j)-d*(j,i)| =  0.000177
     Max |d(i,j)-d*(j,i)|/|d(i,j)|:   0.1055%
     Max |d(i,j)-d*(j,i)| =  0.000177
     Max |d(i,j)-d*(j,i)|/|d(i,j)|:   0.1055%
     Max |d(i,j)-d*(j,i)| =  0.000177
     Max |d(i,j)-d*(j,i)|/|d(i,j)|:   0.1055%
     Max |d(i,j)-d*(j,i)| =  0.000177
     Max |d(i,j)-d*(j,i)|/|d(i,j)|:   0.1055%
     Max |d(i,j)-d*(j,i)| =  0.000177
     Max |d(i,j)-d*(j,i)|/|d(i,j)|:   0.1056%
     Max |d(i,j)-d*(j,i)| =  0.000177
     Max |d(i,j)-d*(j,i)|/|d(i,j)|:   0.1056%
     Max |d(i,j)-d*(j,i)| =  0.000177
     Max |d(i,j)-d*(j,i)|/|d(i,j)|:   0.1056%
     Max |d(i,j)-d*(j,i)| =  0.000177
     Max |d(i,j)-d*(j,i)|/|d(i,j)|:   0.1056%
     Max |d(i,j)-d*(j,i)| =  0.000177
     Max |d(i,j)-d*(j,i)|/|d(i,j)|:   0.1057%
     Max |d(i,j)-d*(j,i)| =  0.000177
     Max |d(i,j)-d*(j,i)|/|d(i,j)|:   0.1057%
     Max |d(i,j)-d*(j,i)| =  0.000177
     Max |d(i,j)-d*(j,i)|/|d(i,j)|:   0.1057%
     Max |d(i,j)-d*(j,i)| =  0.000177
     Max |d(i,j)-d*(j,i)|/|d(i,j)|:   0.1058%
     Max |d(i,j)-d*(j,i)| =  0.000177
     Max |d(i,j)-d*(j,i)|/|d(i,j)|:   0.1058%
     Max |d(i,j)-d*(j,i)| =  0.000177
     Max |d(i,j)-d*(j,i)|/|d(i,j)|:   0.1058%
     Max |d(i,j)-d*(j,i)| =  0.000177
     Max |d(i,j)-d*(j,i)|/|d(i,j)|:   0.1058%
     Max |d(i,j)-d*(j,i)| =  0.000177
     Max |d(i,j)-d*(j,i)|/|d(i,j)|:   0.1059%
     Max |d(i,j)-d*(j,i)| =  0.000177
     Max |d(i,j)-d*(j,i)|/|d(i,j)|:   0.1059%
     Max |d(i,j)-d*(j,i)| =  0.000177
     Max |d(i,j)-d*(j,i)|/|d(i,j)|:   0.1059%
     Max |d(i,j)-d*(j,i)| =  0.000177
     Max |d(i,j)-d*(j,i)|/|d(i,j)|:   0.1059%
     Max |d(i,j)-d*(j,i)| =  0.000177
     Max |d(i,j)-d*(j,i)|/|d(i,j)|:   0.1059%
     Max |d(i,j)-d*(j,i)| =  0.000177
     Max |d(i,j)-d*(j,i)|/|d(i,j)|:   0.1060%
     Max |d(i,j)-d*(j,i)| =  0.000177
     Max |d(i,j)-d*(j,i)|/|d(i,j)|:   0.1060%
     Max |d(i,j)-d*(j,i)| =  0.000177
     Max |d(i,j)-d*(j,i)|/|d(i,j)|:   0.1060%
     Max |d(i,j)-d*(j,i)| =  0.000177
     Max |d(i,j)-d*(j,i)|/|d(i,j)|:   0.1060%
     Max |d(i,j)-d*(j,i)| =  0.000177
     Max |d(i,j)-d*(j,i)|/|d(i,j)|:   0.1061%
     Max |d(i,j)-d*(j,i)| =  0.000177
     Max |d(i,j)-d*(j,i)|/|d(i,j)|:   0.1061%
     Max |d(i,j)-d*(j,i)| =  0.000177
     Max |d(i,j)-d*(j,i)|/|d(i,j)|:   0.1061%
     Max |d(i,j)-d*(j,i)| =  0.000177
     Max |d(i,j)-d*(j,i)|/|d(i,j)|:   0.1061%
     Max |d(i,j)-d*(j,i)| =  0.000177
     Max |d(i,j)-d*(j,i)|/|d(i,j)|:   0.1061%
     Max |d(i,j)-d*(j,i)| =  0.000177
     Max |d(i,j)-d*(j,i)|/|d(i,j)|:   0.1062%
     Max |d(i,j)-d*(j,i)| =  0.000177
     Max |d(i,j)-d*(j,i)|/|d(i,j)|:   0.1062%
     Max |d(i,j)-d*(j,i)| =  0.000177
     Max |d(i,j)-d*(j,i)|/|d(i,j)|:   0.1062%
     Max |d(i,j)-d*(j,i)| =  0.000177
     Max |d(i,j)-d*(j,i)|/|d(i,j)|:   0.1062%
     Max |d(i,j)-d*(j,i)| =  0.000177
     Max |d(i,j)-d*(j,i)|/|d(i,j)|:   0.1062%
     Max |d(i,j)-d*(j,i)| =  0.000177
     Max |d(i,j)-d*(j,i)|/|d(i,j)|:   0.1063%
     Max |d(i,j)-d*(j,i)| =  0.000177
     Max |d(i,j)-d*(j,i)|/|d(i,j)|:   0.1063%
     Max |d(i,j)-d*(j,i)| =  0.000177
     Max |d(i,j)-d*(j,i)|/|d(i,j)|:   0.1063%
     Max |d(i,j)-d*(j,i)| =  0.000177
     Max |d(i,j)-d*(j,i)|/|d(i,j)|:   0.1063%
     Max |d(i,j)-d*(j,i)| =  0.000177
     Max |d(i,j)-d*(j,i)|/|d(i,j)|:   0.1063%
     Max |d(i,j)-d*(j,i)| =  0.000177
     Max |d(i,j)-d*(j,i)|/|d(i,j)|:   0.1064%
     Max |d(i,j)-d*(j,i)| =  0.000177
     Max |d(i,j)-d*(j,i)|/|d(i,j)|:   0.1064%
     Max |d(i,j)-d*(j,i)| =  0.000177
     Max |d(i,j)-d*(j,i)|/|d(i,j)|:   0.1064%
     Max |d(i,j)-d*(j,i)| =  0.000177
     Max |d(i,j)-d*(j,i)|/|d(i,j)|:   0.1064%
     Max |d(i,j)-d*(j,i)| =  0.000177
     Max |d(i,j)-d*(j,i)|/|d(i,j)|:   0.1064%
     Max |d(i,j)-d*(j,i)| =  0.000177
     Max |d(i,j)-d*(j,i)|/|d(i,j)|:   0.1064%
     Max |d(i,j)-d*(j,i)| =  0.000177
     Max |d(i,j)-d*(j,i)|/|d(i,j)|:   0.1065%
     Max |d(i,j)-d*(j,i)| =  0.000177
     Max |d(i,j)-d*(j,i)|/|d(i,j)|:   0.1065%
     Max |d(i,j)-d*(j,i)| =  0.000177
     Max |d(i,j)-d*(j,i)|/|d(i,j)|:   0.1065%
     Max |d(i,j)-d*(j,i)| =  0.000177
     Max |d(i,j)-d*(j,i)|/|d(i,j)|:   0.1065%
     Max |d(i,j)-d*(j,i)| =  0.000177
     Max |d(i,j)-d*(j,i)|/|d(i,j)|:   0.1065%
     Max |d(i,j)-d*(j,i)| =  0.000177
     Max |d(i,j)-d*(j,i)|/|d(i,j)|:   0.1065%
     Max |d(i,j)-d*(j,i)| =  0.000177
     Max |d(i,j)-d*(j,i)|/|d(i,j)|:   0.1066%
     Max |d(i,j)-d*(j,i)| =  0.000177
     Max |d(i,j)-d*(j,i)|/|d(i,j)|:   0.1066%
     Max |d(i,j)-d*(j,i)| =  0.000177
     Max |d(i,j)-d*(j,i)|/|d(i,j)|:   0.1066%
     Max |d(i,j)-d*(j,i)| =  0.000177
     Max |d(i,j)-d*(j,i)|/|d(i,j)|:   0.1066%
     Max |d(i,j)-d*(j,i)| =  0.000177
     Max |d(i,j)-d*(j,i)|/|d(i,j)|:   0.1066%
     Max |d(i,j)-d*(j,i)| =  0.000177
     Max |d(i,j)-d*(j,i)|/|d(i,j)|:   0.1066%
     Max |d(i,j)-d*(j,i)| =  0.000177
     Max |d(i,j)-d*(j,i)|/|d(i,j)|:   0.1066%
     Max |d(i,j)-d*(j,i)| =  0.000177
     Max |d(i,j)-d*(j,i)|/|d(i,j)|:   0.1066%
     Max |d(i,j)-d*(j,i)| =  0.000177
     Max |d(i,j)-d*(j,i)|/|d(i,j)|:   0.1067%
     Max |d(i,j)-d*(j,i)| =  0.000177
     Max |d(i,j)-d*(j,i)|/|d(i,j)|:   0.1067%
     Max |d(i,j)-d*(j,i)| =  0.000177
     Max |d(i,j)-d*(j,i)|/|d(i,j)|:   0.1067%
     Max |d(i,j)-d*(j,i)| =  0.000177
     Max |d(i,j)-d*(j,i)|/|d(i,j)|:   0.1067%
     Max |d(i,j)-d*(j,i)| =  0.000177
     Max |d(i,j)-d*(j,i)|/|d(i,j)|:   0.1067%
     Max |d(i,j)-d*(j,i)| =  0.000177
     Max |d(i,j)-d*(j,i)|/|d(i,j)|:   0.1067%
     Max |d(i,j)-d*(j,i)| =  0.000177
     Max |d(i,j)-d*(j,i)|/|d(i,j)|:   0.1067%
     Max |d(i,j)-d*(j,i)| =  0.000177
     Max |d(i,j)-d*(j,i)|/|d(i,j)|:   0.1067%
     Max |d(i,j)-d*(j,i)| =  0.000177
     Max |d(i,j)-d*(j,i)|/|d(i,j)|:   0.1067%
     Max |d(i,j)-d*(j,i)| =  0.000177
     Max |d(i,j)-d*(j,i)|/|d(i,j)|:   0.1068%
     Max |d(i,j)-d*(j,i)| =  0.000177
     Max |d(i,j)-d*(j,i)|/|d(i,j)|:   0.1068%
     Max |d(i,j)-d*(j,i)| =  0.000177
     Max |d(i,j)-d*(j,i)|/|d(i,j)|:   0.1068%
     Max |d(i,j)-d*(j,i)| =  0.000177
     Max |d(i,j)-d*(j,i)|/|d(i,j)|:   0.1068%
     Max |d(i,j)-d*(j,i)| =  0.000177
     Max |d(i,j)-d*(j,i)|/|d(i,j)|:   0.1068%
     Max |d(i,j)-d*(j,i)| =  0.000177
     Max |d(i,j)-d*(j,i)|/|d(i,j)|:   0.1068%
     Max |d(i,j)-d*(j,i)| =  0.000177
     Max |d(i,j)-d*(j,i)|/|d(i,j)|:   0.1068%
     Max |d(i,j)-d*(j,i)| =  0.000177
     Max |d(i,j)-d*(j,i)|/|d(i,j)|:   0.1068%
     Max |d(i,j)-d*(j,i)| =  0.000177
     Max |d(i,j)-d*(j,i)|/|d(i,j)|:   0.1068%
     Max |d(i,j)-d*(j,i)| =  0.000177
     Max |d(i,j)-d*(j,i)|/|d(i,j)|:   0.1068%
     Max |d(i,j)-d*(j,i)| =  0.000177
     Max |d(i,j)-d*(j,i)|/|d(i,j)|:   0.1068%
     Max |d(i,j)-d*(j,i)| =  0.000177
     Max |d(i,j)-d*(j,i)|/|d(i,j)|:   0.1068%
     Max |d(i,j)-d*(j,i)| =  0.000177
     Max |d(i,j)-d*(j,i)|/|d(i,j)|:   0.1068%
     Max |d(i,j)-d*(j,i)| =  0.000177
     Max |d(i,j)-d*(j,i)|/|d(i,j)|:   0.1068%
     Max |d(i,j)-d*(j,i)| =  0.000177
     Max |d(i,j)-d*(j,i)|/|d(i,j)|:   0.1068%
     Max |d(i,j)-d*(j,i)| =  0.000177
     Max |d(i,j)-d*(j,i)|/|d(i,j)|:   0.1068%
     Max |d(i,j)-d*(j,i)| =  0.000177
     Max |d(i,j)-d*(j,i)|/|d(i,j)|:   0.1069%
     Max |d(i,j)-d*(j,i)| =  0.000177
     Max |d(i,j)-d*(j,i)|/|d(i,j)|:   0.1069%
     Max |d(i,j)-d*(j,i)| =  0.000177
     Max |d(i,j)-d*(j,i)|/|d(i,j)|:   0.1069%
     Max |d(i,j)-d*(j,i)| =  0.000177
     Max |d(i,j)-d*(j,i)|/|d(i,j)|:   0.1069%
     Max |d(i,j)-d*(j,i)| =  0.000177
     Max |d(i,j)-d*(j,i)|/|d(i,j)|:   0.1069%
     Max |d(i,j)-d*(j,i)| =  0.000177
     Max |d(i,j)-d*(j,i)|/|d(i,j)|:   0.1069%
     Max |d(i,j)-d*(j,i)| =  0.000177
     Max |d(i,j)-d*(j,i)|/|d(i,j)|:   0.1069%
     Max |d(i,j)-d*(j,i)| =  0.000177
     Max |d(i,j)-d*(j,i)|/|d(i,j)|:   0.1069%
     Max |d(i,j)-d*(j,i)| =  0.000177
     Max |d(i,j)-d*(j,i)|/|d(i,j)|:   0.1069%
     Max |d(i,j)-d*(j,i)| =  0.000177
     Max |d(i,j)-d*(j,i)|/|d(i,j)|:   0.1069%
     Max |d(i,j)-d*(j,i)| =  0.000177
     Max |d(i,j)-d*(j,i)|/|d(i,j)|:   0.1029%
     Max |d(i,j)-d*(j,i)| =  0.000177
     Max |d(i,j)-d*(j,i)|/|d(i,j)|:   0.1029%
     Max |d(i,j)-d*(j,i)| =  0.000177
     Max |d(i,j)-d*(j,i)|/|d(i,j)|:   0.1029%
     Max |d(i,j)-d*(j,i)| =  0.000177
     Max |d(i,j)-d*(j,i)|/|d(i,j)|:   0.1029%
     Max |d(i,j)-d*(j,i)| =  0.000177
     Max |d(i,j)-d*(j,i)|/|d(i,j)|:   0.1029%
     Max |d(i,j)-d*(j,i)| =  0.000177
     Max |d(i,j)-d*(j,i)|/|d(i,j)|:   0.1029%
     Max |d(i,j)-d*(j,i)| =  0.000177
     Max |d(i,j)-d*(j,i)|/|d(i,j)|:   0.1029%
     Max |d(i,j)-d*(j,i)| =  0.000177
     Max |d(i,j)-d*(j,i)|/|d(i,j)|:   0.1029%
     Max |d(i,j)-d*(j,i)| =  0.000177
     Max |d(i,j)-d*(j,i)|/|d(i,j)|:   0.1029%
     Max |d(i,j)-d*(j,i)| =  0.000177
     Max |d(i,j)-d*(j,i)|/|d(i,j)|:   0.1029%
     Max |d(i,j)-d*(j,i)| =  0.000177
     Max |d(i,j)-d*(j,i)|/|d(i,j)|:   0.1029%
     Max |d(i,j)-d*(j,i)| =  0.000177
     Max |d(i,j)-d*(j,i)|/|d(i,j)|:   0.1029%
     Max |d(i,j)-d*(j,i)| =  0.000177
     Max |d(i,j)-d*(j,i)|/|d(i,j)|:   0.1029%
     Max |d(i,j)-d*(j,i)| =  0.000177
     Max |d(i,j)-d*(j,i)|/|d(i,j)|:   0.1029%
     Max |d(i,j)-d*(j,i)| =  0.000177
     Max |d(i,j)-d*(j,i)|/|d(i,j)|:   0.1029%
     Max |d(i,j)-d*(j,i)| =  0.000177
     Max |d(i,j)-d*(j,i)|/|d(i,j)|:   0.1029%
     Max |d(i,j)-d*(j,i)| =  0.000177
     Max |d(i,j)-d*(j,i)|/|d(i,j)|:   0.1029%
     Max |d(i,j)-d*(j,i)| =  0.000177
     Max |d(i,j)-d*(j,i)|/|d(i,j)|:   0.1029%
     Max |d(i,j)-d*(j,i)| =  0.000177
     Max |d(i,j)-d*(j,i)|/|d(i,j)|:   0.1029%
     Max |d(i,j)-d*(j,i)| =  0.000177
     Max |d(i,j)-d*(j,i)|/|d(i,j)|:   0.1029%
     Max |d(i,j)-d*(j,i)| =  0.000177
     Max |d(i,j)-d*(j,i)|/|d(i,j)|:   0.1029%
     Max |d(i,j)-d*(j,i)| =  0.000177
     Max |d(i,j)-d*(j,i)|/|d(i,j)|:   0.1029%
     Max |d(i,j)-d*(j,i)| =  0.000177
     Max |d(i,j)-d*(j,i)|/|d(i,j)|:   0.1029%
     Max |d(i,j)-d*(j,i)| =  0.000177
     Max |d(i,j)-d*(j,i)|/|d(i,j)|:   0.1029%
     Max |d(i,j)-d*(j,i)| =  0.000177
     Max |d(i,j)-d*(j,i)|/|d(i,j)|:   0.1029%
     Max |d(i,j)-d*(j,i)| =  0.000177
     Max |d(i,j)-d*(j,i)|/|d(i,j)|:   0.1029%
     Max |d(i,j)-d*(j,i)| =  0.000177
     Max |d(i,j)-d*(j,i)|/|d(i,j)|:   0.1029%
     Max |d(i,j)-d*(j,i)| =  0.000177
     Max |d(i,j)-d*(j,i)|/|d(i,j)|:   0.1029%
     Max |d(i,j)-d*(j,i)| =  0.000177
     Max |d(i,j)-d*(j,i)|/|d(i,j)|:   0.1029%
     Max |d(i,j)-d*(j,i)| =  0.000177
     Max |d(i,j)-d*(j,i)|/|d(i,j)|:   0.1029%
     Max |d(i,j)-d*(j,i)| =  0.000177
     Max |d(i,j)-d*(j,i)|/|d(i,j)|:   0.1029%
     Max |d(i,j)-d*(j,i)| =  0.000177
     Max |d(i,j)-d*(j,i)|/|d(i,j)|:   0.1029%
     Max |d(i,j)-d*(j,i)| =  0.000177
     Max |d(i,j)-d*(j,i)|/|d(i,j)|:   0.1029%
     Max |d(i,j)-d*(j,i)| =  0.000177
     Max |d(i,j)-d*(j,i)|/|d(i,j)|:   0.1029%
     Max |d(i,j)-d*(j,i)| =  0.000177
     Max |d(i,j)-d*(j,i)|/|d(i,j)|:   0.1029%
     Max |d(i,j)-d*(j,i)| =  0.000177
     Max |d(i,j)-d*(j,i)|/|d(i,j)|:   0.1029%
     Max |d(i,j)-d*(j,i)| =  0.000177
     Max |d(i,j)-d*(j,i)|/|d(i,j)|:   0.1029%
     Max |d(i,j)-d*(j,i)| =  0.000177
     Max |d(i,j)-d*(j,i)|/|d(i,j)|:   0.1029%
     Max |d(i,j)-d*(j,i)| =  0.000177
     Max |d(i,j)-d*(j,i)|/|d(i,j)|:   0.1029%
     Max |d(i,j)-d*(j,i)| =  0.000177
     Max |d(i,j)-d*(j,i)|/|d(i,j)|:   0.1029%
     Max |d(i,j)-d*(j,i)| =  0.000177
     Max |d(i,j)-d*(j,i)|/|d(i,j)|:   0.1029%
     Max |d(i,j)-d*(j,i)| =  0.000177
     Max |d(i,j)-d*(j,i)|/|d(i,j)|:   0.1029%
     Max |d(i,j)-d*(j,i)| =  0.000177
     Max |d(i,j)-d*(j,i)|/|d(i,j)|:   0.1029%
     Max |d(i,j)-d*(j,i)| =  0.000177
     Max |d(i,j)-d*(j,i)|/|d(i,j)|:   0.1029%
     Max |d(i,j)-d*(j,i)| =  0.000177
     Max |d(i,j)-d*(j,i)|/|d(i,j)|:   0.1029%
     Max |d(i,j)-d*(j,i)| =  0.000177
     Max |d(i,j)-d*(j,i)|/|d(i,j)|:   0.1029%
     Max |d(i,j)-d*(j,i)| =  0.000177
     Max |d(i,j)-d*(j,i)|/|d(i,j)|:   0.1029%
     Max |d(i,j)-d*(j,i)| =  0.000177
     Max |d(i,j)-d*(j,i)|/|d(i,j)|:   0.1029%
     Max |d(i,j)-d*(j,i)| =  0.000177
     Max |d(i,j)-d*(j,i)|/|d(i,j)|:   0.1029%
     Max |d(i,j)-d*(j,i)| =  0.000177
     Max |d(i,j)-d*(j,i)|/|d(i,j)|:   0.1029%
     Max |d(i,j)-d*(j,i)| =  0.000177
     Max |d(i,j)-d*(j,i)|/|d(i,j)|:   0.1029%
     Max |d(i,j)-d*(j,i)| =  0.000177
     Max |d(i,j)-d*(j,i)|/|d(i,j)|:   0.1029%
     Max |d(i,j)-d*(j,i)| =  0.000177
     Max |d(i,j)-d*(j,i)|/|d(i,j)|:   0.1029%
     Max |d(i,j)-d*(j,i)| =  0.000177
     Max |d(i,j)-d*(j,i)|/|d(i,j)|:   0.1029%
     Max |d(i,j)-d*(j,i)| =  0.000177
     Max |d(i,j)-d*(j,i)|/|d(i,j)|:   0.1029%
     Max |d(i,j)-d*(j,i)| =  0.000177
     Max |d(i,j)-d*(j,i)|/|d(i,j)|:   0.1029%
     Max |d(i,j)-d*(j,i)| =  0.000177
     Max |d(i,j)-d*(j,i)|/|d(i,j)|:   0.1029%
     Max |d(i,j)-d*(j,i)| =  0.000177
     Max |d(i,j)-d*(j,i)|/|d(i,j)|:   0.1029%
     Max |d(i,j)-d*(j,i)| =  0.000177
     Max |d(i,j)-d*(j,i)|/|d(i,j)|:   0.1029%
     Max |d(i,j)-d*(j,i)| =  0.000177
     Max |d(i,j)-d*(j,i)|/|d(i,j)|:   0.1029%
     Max |d(i,j)-d*(j,i)| =  0.000177
     Max |d(i,j)-d*(j,i)|/|d(i,j)|:   0.1029%
     Max |d(i,j)-d*(j,i)| =  0.000177
     Max |d(i,j)-d*(j,i)|/|d(i,j)|:   0.1029%
     Max |d(i,j)-d*(j,i)| =  0.000177
     Max |d(i,j)-d*(j,i)|/|d(i,j)|:   0.1029%
     Max |d(i,j)-d*(j,i)| =  0.000177
     Max |d(i,j)-d*(j,i)|/|d(i,j)|:   0.1029%
     Max |d(i,j)-d*(j,i)| =  0.000177
     Max |d(i,j)-d*(j,i)|/|d(i,j)|:   0.1029%
     Max |d(i,j)-d*(j,i)| =  0.000177
     Max |d(i,j)-d*(j,i)|/|d(i,j)|:   0.1029%
     Max |d(i,j)-d*(j,i)| =  0.000177
     Max |d(i,j)-d*(j,i)|/|d(i,j)|:   0.1029%
     Max |d(i,j)-d*(j,i)| =  0.000177
     Max |d(i,j)-d*(j,i)|/|d(i,j)|:   0.1029%
     Max |d(i,j)-d*(j,i)| =  0.000177
     Max |d(i,j)-d*(j,i)|/|d(i,j)|:   0.1029%
     Max |d(i,j)-d*(j,i)| =  0.000177
     Max |d(i,j)-d*(j,i)|/|d(i,j)|:   0.1029%
     Max |d(i,j)-d*(j,i)| =  0.000177
     Max |d(i,j)-d*(j,i)|/|d(i,j)|:   0.1029%
     Max |d(i,j)-d*(j,i)| =  0.000177
     Max |d(i,j)-d*(j,i)|/|d(i,j)|:   0.1029%
     Max |d(i,j)-d*(j,i)| =  0.000177
     Max |d(i,j)-d*(j,i)|/|d(i,j)|:   0.1029%
     Max |d(i,j)-d*(j,i)| =  0.000177
     Max |d(i,j)-d*(j,i)|/|d(i,j)|:   0.1029%
     Max |d(i,j)-d*(j,i)| =  0.000177
     Max |d(i,j)-d*(j,i)|/|d(i,j)|:   0.1029%
     Max |d(i,j)-d*(j,i)| =  0.000177
     Max |d(i,j)-d*(j,i)|/|d(i,j)|:   0.1029%
     Max |d(i,j)-d*(j,i)| =  0.000177
     Max |d(i,j)-d*(j,i)|/|d(i,j)|:   0.1029%
     Max |d(i,j)-d*(j,i)| =  0.000177
     Max |d(i,j)-d*(j,i)|/|d(i,j)|:   0.1029%
     Max |d(i,j)-d*(j,i)| =  0.000177
     Max |d(i,j)-d*(j,i)|/|d(i,j)|:   0.1029%
     Max |d(i,j)-d*(j,i)| =  0.000177
     Max |d(i,j)-d*(j,i)|/|d(i,j)|:   0.1029%
     Max |d(i,j)-d*(j,i)| =  0.000177
     Max |d(i,j)-d*(j,i)|/|d(i,j)|:   0.1029%
     Max |d(i,j)-d*(j,i)| =  0.000177
     Max |d(i,j)-d*(j,i)|/|d(i,j)|:   0.1029%
     Max |d(i,j)-d*(j,i)| =  0.000177
     Max |d(i,j)-d*(j,i)|/|d(i,j)|:   0.1029%
     Max |d(i,j)-d*(j,i)| =  0.000177
     Max |d(i,j)-d*(j,i)|/|d(i,j)|:   0.1029%
     Max |d(i,j)-d*(j,i)| =  0.000177
     Max |d(i,j)-d*(j,i)|/|d(i,j)|:   0.1029%
     Max |d(i,j)-d*(j,i)| =  0.000177
     Max |d(i,j)-d*(j,i)|/|d(i,j)|:   0.1029%
     Max |d(i,j)-d*(j,i)| =  0.000177
     Max |d(i,j)-d*(j,i)|/|d(i,j)|:   0.1029%
     Max |d(i,j)-d*(j,i)| =  0.000177
     Max |d(i,j)-d*(j,i)|/|d(i,j)|:   0.1029%
     Max |d(i,j)-d*(j,i)| =  0.000177
     Max |d(i,j)-d*(j,i)|/|d(i,j)|:   0.1029%
     Max |d(i,j)-d*(j,i)| =  0.000177
     Max |d(i,j)-d*(j,i)|/|d(i,j)|:   0.1029%
     Max |d(i,j)-d*(j,i)| =  0.000177
     Max |d(i,j)-d*(j,i)|/|d(i,j)|:   0.1029%
     Max |d(i,j)-d*(j,i)| =  0.000177
     Max |d(i,j)-d*(j,i)|/|d(i,j)|:   0.1029%
     Max |d(i,j)-d*(j,i)| =  0.000177
     Max |d(i,j)-d*(j,i)|/|d(i,j)|:   0.1029%
[...]
     Max |d(i,j)-d*(j,i)| =  0.000177
     Max |d(i,j)-d*(j,i)|/|d(i,j)|:   0.0961%
     Max |d(i,j)-d*(j,i)| =  0.000177
     Max |d(i,j)-d*(j,i)|/|d(i,j)|:   0.0961%
     Max |d(i,j)-d*(j,i)| =  0.000177
     Max |d(i,j)-d*(j,i)|/|d(i,j)|:   0.0961%
     Max |d(i,j)-d*(j,i)| =  0.000177
     Max |d(i,j)-d*(j,i)|/|d(i,j)|:   0.0961%
     Max |d(i,j)-d*(j,i)| =  0.000177
     Max |d(i,j)-d*(j,i)|/|d(i,j)|:   0.0962%
     Max |d(i,j)-d*(j,i)| =  0.000177
     Max |d(i,j)-d*(j,i)|/|d(i,j)|:   0.0962%
     Max |d(i,j)-d*(j,i)| =  0.000177
     Max |d(i,j)-d*(j,i)|/|d(i,j)|:   0.0962%
     Max |d(i,j)-d*(j,i)| =  0.000177
     Max |d(i,j)-d*(j,i)|/|d(i,j)|:   0.0962%
     Max |d(i,j)-d*(j,i)| =  0.000177
     Max |d(i,j)-d*(j,i)|/|d(i,j)|:   0.0962%
     Max |d(i,j)-d*(j,i)| =  0.000177
     Max |d(i,j)-d*(j,i)|/|d(i,j)|:   0.0963%
     Max |d(i,j)-d*(j,i)| =  0.000177
     Max |d(i,j)-d*(j,i)|/|d(i,j)|:   0.0963%
     Max |d(i,j)-d*(j,i)| =  0.000177
     Max |d(i,j)-d*(j,i)|/|d(i,j)|:   0.0963%
     Max |d(i,j)-d*(j,i)| =  0.000177
     Max |d(i,j)-d*(j,i)|/|d(i,j)|:   0.0963%
     Max |d(i,j)-d*(j,i)| =  0.000177
     Max |d(i,j)-d*(j,i)|/|d(i,j)|:   0.0964%
     Max |d(i,j)-d*(j,i)| =  0.000177
     Max |d(i,j)-d*(j,i)|/|d(i,j)|:   0.0964%
     Max |d(i,j)-d*(j,i)| =  0.000177
     Max |d(i,j)-d*(j,i)|/|d(i,j)|:   0.0964%
     Max |d(i,j)-d*(j,i)| =  0.000177
     Max |d(i,j)-d*(j,i)|/|d(i,j)|:   0.0964%
     Max |d(i,j)-d*(j,i)| =  0.000177
     Max |d(i,j)-d*(j,i)|/|d(i,j)|:   0.0965%
     Max |d(i,j)-d*(j,i)| =  0.000177
     Max |d(i,j)-d*(j,i)|/|d(i,j)|:   0.0965%
     Max |d(i,j)-d*(j,i)| =  0.000177
     Max |d(i,j)-d*(j,i)|/|d(i,j)|:   0.0965%
     Max |d(i,j)-d*(j,i)| =  0.000177
     Max |d(i,j)-d*(j,i)|/|d(i,j)|:   0.0965%
     Max |d(i,j)-d*(j,i)| =  0.000177
     Max |d(i,j)-d*(j,i)|/|d(i,j)|:   0.0965%
     Max |d(i,j)-d*(j,i)| =  0.000177
     Max |d(i,j)-d*(j,i)|/|d(i,j)|:   0.0966%
     Max |d(i,j)-d*(j,i)| =  0.000177
     Max |d(i,j)-d*(j,i)|/|d(i,j)|:   0.0966%
     Max |d(i,j)-d*(j,i)| =  0.000177
     Max |d(i,j)-d*(j,i)|/|d(i,j)|:   0.0966%
     Max |d(i,j)-d*(j,i)| =  0.000177
     Max |d(i,j)-d*(j,i)|/|d(i,j)|:   0.0966%
     Max |d(i,j)-d*(j,i)| =  0.000177
     Max |d(i,j)-d*(j,i)|/|d(i,j)|:   0.0967%
     Max |d(i,j)-d*(j,i)| =  0.000177
     Max |d(i,j)-d*(j,i)|/|d(i,j)|:   0.0967%
     Max |d(i,j)-d*(j,i)| =  0.000177
     Max |d(i,j)-d*(j,i)|/|d(i,j)|:   0.0967%
     Max |d(i,j)-d*(j,i)| =  0.000177
     Max |d(i,j)-d*(j,i)|/|d(i,j)|:   0.0967%
     Max |d(i,j)-d*(j,i)| =  0.000177
     Max |d(i,j)-d*(j,i)|/|d(i,j)|:   0.0968%
     Max |d(i,j)-d*(j,i)| =  0.000177
     Max |d(i,j)-d*(j,i)|/|d(i,j)|:   0.0968%
     Max |d(i,j)-d*(j,i)| =  0.000177
     Max |d(i,j)-d*(j,i)|/|d(i,j)|:   0.0968%
     Max |d(i,j)-d*(j,i)| =  0.000177
     Max |d(i,j)-d*(j,i)|/|d(i,j)|:   0.0968%
     Max |d(i,j)-d*(j,i)| =  0.000177
     Max |d(i,j)-d*(j,i)|/|d(i,j)|:   0.0969%
     Max |d(i,j)-d*(j,i)| =  0.000177
     Max |d(i,j)-d*(j,i)|/|d(i,j)|:   0.0969%
     Max |d(i,j)-d*(j,i)| =  0.000177
     Max |d(i,j)-d*(j,i)|/|d(i,j)|:   0.0969%
     Max |d(i,j)-d*(j,i)| =  0.000177
     Max |d(i,j)-d*(j,i)|/|d(i,j)|:   0.0969%
     Max |d(i,j)-d*(j,i)| =  0.000177
     Max |d(i,j)-d*(j,i)|/|d(i,j)|:   0.0970%
     Max |d(i,j)-d*(j,i)| =  0.000177
     Max |d(i,j)-d*(j,i)|/|d(i,j)|:   0.0970%
     Max |d(i,j)-d*(j,i)| =  0.000177
     Max |d(i,j)-d*(j,i)|/|d(i,j)|:   0.0970%
     Max |d(i,j)-d*(j,i)| =  0.000177
     Max |d(i,j)-d*(j,i)|/|d(i,j)|:   0.0970%
     Max |d(i,j)-d*(j,i)| =  0.000177
     Max |d(i,j)-d*(j,i)|/|d(i,j)|:   0.0971%
     Max |d(i,j)-d*(j,i)| =  0.000177
     Max |d(i,j)-d*(j,i)|/|d(i,j)|:   0.0971%
     Max |d(i,j)-d*(j,i)| =  0.000177
     Max |d(i,j)-d*(j,i)|/|d(i,j)|:   0.0971%
     Max |d(i,j)-d*(j,i)| =  0.000177
     Max |d(i,j)-d*(j,i)|/|d(i,j)|:   0.0971%
     Max |d(i,j)-d*(j,i)| =  0.000177
     Max |d(i,j)-d*(j,i)|/|d(i,j)|:   0.0972%
     Max |d(i,j)-d*(j,i)| =  0.000177
     Max |d(i,j)-d*(j,i)|/|d(i,j)|:   0.0972%
     Max |d(i,j)-d*(j,i)| =  0.000177
     Max |d(i,j)-d*(j,i)|/|d(i,j)|:   0.0972%
     Max |d(i,j)-d*(j,i)| =  0.000177
     Max |d(i,j)-d*(j,i)|/|d(i,j)|:   0.0973%
     Max |d(i,j)-d*(j,i)| =  0.000177
     Max |d(i,j)-d*(j,i)|/|d(i,j)|:   0.0973%
     Max |d(i,j)-d*(j,i)| =  0.000177
     Max |d(i,j)-d*(j,i)|/|d(i,j)|:   0.0973%
     Max |d(i,j)-d*(j,i)| =  0.000177
     Max |d(i,j)-d*(j,i)|/|d(i,j)|:   0.0973%
     Max |d(i,j)-d*(j,i)| =  0.000177
     Max |d(i,j)-d*(j,i)|/|d(i,j)|:   0.0974%
     Max |d(i,j)-d*(j,i)| =  0.000177
     Max |d(i,j)-d*(j,i)|/|d(i,j)|:   0.0974%
     Max |d(i,j)-d*(j,i)| =  0.000177
     Max |d(i,j)-d*(j,i)|/|d(i,j)|:   0.0974%
     Max |d(i,j)-d*(j,i)| =  0.000177
     Max |d(i,j)-d*(j,i)|/|d(i,j)|:   0.0974%
     Max |d(i,j)-d*(j,i)| =  0.000177
     Max |d(i,j)-d*(j,i)|/|d(i,j)|:   0.0975%
     Max |d(i,j)-d*(j,i)| =  0.000177
     Max |d(i,j)-d*(j,i)|/|d(i,j)|:   0.0975%
     Max |d(i,j)-d*(j,i)| =  0.000177
     Max |d(i,j)-d*(j,i)|/|d(i,j)|:   0.0975%
     Max |d(i,j)-d*(j,i)| =  0.000177
     Max |d(i,j)-d*(j,i)|/|d(i,j)|:   0.0975%
     Max |d(i,j)-d*(j,i)| =  0.000177
     Max |d(i,j)-d*(j,i)|/|d(i,j)|:   0.0976%
     Max |d(i,j)-d*(j,i)| =  0.000177
     Max |d(i,j)-d*(j,i)|/|d(i,j)|:   0.0976%
     Max |d(i,j)-d*(j,i)| =  0.000177
     Max |d(i,j)-d*(j,i)|/|d(i,j)|:   0.0976%
     Max |d(i,j)-d*(j,i)| =  0.000177
     Max |d(i,j)-d*(j,i)|/|d(i,j)|:   0.0977%
     Max |d(i,j)-d*(j,i)| =  0.000177
     Max |d(i,j)-d*(j,i)|/|d(i,j)|:   0.0977%
     Max |d(i,j)-d*(j,i)| =  0.000177
     Max |d(i,j)-d*(j,i)|/|d(i,j)|:   0.0977%
     Max |d(i,j)-d*(j,i)| =  0.000177
     Max |d(i,j)-d*(j,i)|/|d(i,j)|:   0.0977%
     Max |d(i,j)-d*(j,i)| =  0.000177
     Max |d(i,j)-d*(j,i)|/|d(i,j)|:   0.0978%
     Max |d(i,j)-d*(j,i)| =  0.000177
     Max |d(i,j)-d*(j,i)|/|d(i,j)|:   0.0978%
     Max |d(i,j)-d*(j,i)| =  0.000177
     Max |d(i,j)-d*(j,i)|/|d(i,j)|:   0.0978%
     Max |d(i,j)-d*(j,i)| =  0.000177
     Max |d(i,j)-d*(j,i)|/|d(i,j)|:   0.0978%
     Max |d(i,j)-d*(j,i)| =  0.000177
     Max |d(i,j)-d*(j,i)|/|d(i,j)|:   0.0979%
     Max |d(i,j)-d*(j,i)| =  0.000177
     Max |d(i,j)-d*(j,i)|/|d(i,j)|:   0.0979%
     Max |d(i,j)-d*(j,i)| =  0.000177
     Max |d(i,j)-d*(j,i)|/|d(i,j)|:   0.0979%
     Max |d(i,j)-d*(j,i)| =  0.000177
     Max |d(i,j)-d*(j,i)|/|d(i,j)|:   0.0980%
     Max |d(i,j)-d*(j,i)| =  0.000177
     Max |d(i,j)-d*(j,i)|/|d(i,j)|:   0.0980%
     Max |d(i,j)-d*(j,i)| =  0.000177
     Max |d(i,j)-d*(j,i)|/|d(i,j)|:   0.0980%
     Max |d(i,j)-d*(j,i)| =  0.000177
     Max |d(i,j)-d*(j,i)|/|d(i,j)|:   0.0980%
     Max |d(i,j)-d*(j,i)| =  0.000177
     Max |d(i,j)-d*(j,i)|/|d(i,j)|:   0.0981%
     Max |d(i,j)-d*(j,i)| =  0.000177
     Max |d(i,j)-d*(j,i)|/|d(i,j)|:   0.0981%
     Max |d(i,j)-d*(j,i)| =  0.000177
     Max |d(i,j)-d*(j,i)|/|d(i,j)|:   0.0981%
     Max |d(i,j)-d*(j,i)| =  0.000177
     Max |d(i,j)-d*(j,i)|/|d(i,j)|:   0.0981%
     Max |d(i,j)-d*(j,i)| =  0.000177
     Max |d(i,j)-d*(j,i)|/|d(i,j)|:   0.0982%
     Max |d(i,j)-d*(j,i)| =  0.000177
     Max |d(i,j)-d*(j,i)|/|d(i,j)|:   0.0982%
     Max |d(i,j)-d*(j,i)| =  0.000177
     Max |d(i,j)-d*(j,i)|/|d(i,j)|:   0.0982%
     Max |d(i,j)-d*(j,i)| =  0.000177
     Max |d(i,j)-d*(j,i)|/|d(i,j)|:   0.0983%
     Max |d(i,j)-d*(j,i)| =  0.000177
     Max |d(i,j)-d*(j,i)|/|d(i,j)|:   0.0983%
     Max |d(i,j)-d*(j,i)| =  0.000177
     Max |d(i,j)-d*(j,i)|/|d(i,j)|:   0.0983%
     Max |d(i,j)-d*(j,i)| =  0.000177
     Max |d(i,j)-d*(j,i)|/|d(i,j)|:   0.0983%
     Max |d(i,j)-d*(j,i)| =  0.000177
     Max |d(i,j)-d*(j,i)|/|d(i,j)|:   0.0984%
     Max |d(i,j)-d*(j,i)| =  0.000177
     Max |d(i,j)-d*(j,i)|/|d(i,j)|:   0.0984%
     Max |d(i,j)-d*(j,i)| =  0.000177
     Max |d(i,j)-d*(j,i)|/|d(i,j)|:   0.0984%
     Max |d(i,j)-d*(j,i)| =  0.000177
     Max |d(i,j)-d*(j,i)|/|d(i,j)|:   0.0985%
     Max |d(i,j)-d*(j,i)| =  0.000177
     Max |d(i,j)-d*(j,i)|/|d(i,j)|:   0.0985%
     Max |d(i,j)-d*(j,i)| =  0.000177
     Max |d(i,j)-d*(j,i)|/|d(i,j)|:   0.0985%
     Max |d(i,j)-d*(j,i)| =  0.000177
     Max |d(i,j)-d*(j,i)|/|d(i,j)|:   0.0985%
     Max |d(i,j)-d*(j,i)| =  0.000177
     Max |d(i,j)-d*(j,i)|/|d(i,j)|:   0.0986%
     Max |d(i,j)-d*(j,i)| =  0.000177
     Max |d(i,j)-d*(j,i)|/|d(i,j)|:   0.0986%
     Max |d(i,j)-d*(j,i)| =  0.000177
     Max |d(i,j)-d*(j,i)|/|d(i,j)|:   0.0986%
     Max |d(i,j)-d*(j,i)| =  0.000177
     Max |d(i,j)-d*(j,i)|/|d(i,j)|:   0.0987%
     Max |d(i,j)-d*(j,i)| =  0.000177
     Max |d(i,j)-d*(j,i)|/|d(i,j)|:   0.0987%
     Max |d(i,j)-d*(j,i)| =  0.000177
     Max |d(i,j)-d*(j,i)|/|d(i,j)|:   0.0987%
     Max |d(i,j)-d*(j,i)| =  0.000177
     Max |d(i,j)-d*(j,i)|/|d(i,j)|:   0.0987%
     Max |d(i,j)-d*(j,i)| =  0.000177
     Max |d(i,j)-d*(j,i)|/|d(i,j)|:   0.0988%
     Max |d(i,j)-d*(j,i)| =  0.000177
     Max |d(i,j)-d*(j,i)|/|d(i,j)|:   0.0988%
     Max |d(i,j)-d*(j,i)| =  0.000177
     Max |d(i,j)-d*(j,i)|/|d(i,j)|:   0.0988%
     Max |d(i,j)-d*(j,i)| =  0.000177
     Max |d(i,j)-d*(j,i)|/|d(i,j)|:   0.0988%
     Max |d(i,j)-d*(j,i)| =  0.000177
     Max |d(i,j)-d*(j,i)|/|d(i,j)|:   0.0989%
     Max |d(i,j)-d*(j,i)| =  0.000177
     Max |d(i,j)-d*(j,i)|/|d(i,j)|:   0.0989%
     Max |d(i,j)-d*(j,i)| =  0.000177
     Max |d(i,j)-d*(j,i)|/|d(i,j)|:   0.0989%
     Max |d(i,j)-d*(j,i)| =  0.000177
     Max |d(i,j)-d*(j,i)|/|d(i,j)|:   0.0990%
     Max |d(i,j)-d*(j,i)| =  0.000177
     Max |d(i,j)-d*(j,i)|/|d(i,j)|:   0.0990%
     Max |d(i,j)-d*(j,i)| =  0.000177
     Max |d(i,j)-d*(j,i)|/|d(i,j)|:   0.0990%
     Max |d(i,j)-d*(j,i)| =  0.000177
     Max |d(i,j)-d*(j,i)|/|d(i,j)|:   0.0990%
     Max |d(i,j)-d*(j,i)| =  0.000177
     Max |d(i,j)-d*(j,i)|/|d(i,j)|:   0.0991%
     Max |d(i,j)-d*(j,i)| =  0.000177
     Max |d(i,j)-d*(j,i)|/|d(i,j)|:   0.0991%
     Max |d(i,j)-d*(j,i)| =  0.000177
     Max |d(i,j)-d*(j,i)|/|d(i,j)|:   0.0991%
     Max |d(i,j)-d*(j,i)| =  0.000177
     Max |d(i,j)-d*(j,i)|/|d(i,j)|:   0.0992%
     Max |d(i,j)-d*(j,i)| =  0.000177
     Max |d(i,j)-d*(j,i)|/|d(i,j)|:   0.0992%
     Max |d(i,j)-d*(j,i)| =  0.000177
     Max |d(i,j)-d*(j,i)|/|d(i,j)|:   0.0992%
     Max |d(i,j)-d*(j,i)| =  0.000177
     Max |d(i,j)-d*(j,i)|/|d(i,j)|:   0.0992%
     Max |d(i,j)-d*(j,i)| =  0.000177
     Max |d(i,j)-d*(j,i)|/|d(i,j)|:   0.0993%
     Max |d(i,j)-d*(j,i)| =  0.000177
     Max |d(i,j)-d*(j,i)|/|d(i,j)|:   0.0993%
     Max |d(i,j)-d*(j,i)| =  0.000177
     Max |d(i,j)-d*(j,i)|/|d(i,j)|:   0.0993%
     Max |d(i,j)-d*(j,i)| =  0.000177
     Max |d(i,j)-d*(j,i)|/|d(i,j)|:   0.0994%
     Max |d(i,j)-d*(j,i)| =  0.000177
     Max |d(i,j)-d*(j,i)|/|d(i,j)|:   0.0994%
     Max |d(i,j)-d*(j,i)| =  0.000177
     Max |d(i,j)-d*(j,i)|/|d(i,j)|:   0.0994%
     Max |d(i,j)-d*(j,i)| =  0.000177
     Max |d(i,j)-d*(j,i)|/|d(i,j)|:   0.0994%
     Max |d(i,j)-d*(j,i)| =  0.000177
     Max |d(i,j)-d*(j,i)|/|d(i,j)|:   0.0995%
     Max |d(i,j)-d*(j,i)| =  0.000177
     Max |d(i,j)-d*(j,i)|/|d(i,j)|:   0.0995%
     Max |d(i,j)-d*(j,i)| =  0.000177
     Max |d(i,j)-d*(j,i)|/|d(i,j)|:   0.0995%
     Max |d(i,j)-d*(j,i)| =  0.000177
     Max |d(i,j)-d*(j,i)|/|d(i,j)|:   0.0996%
     Max |d(i,j)-d*(j,i)| =  0.000177
     Max |d(i,j)-d*(j,i)|/|d(i,j)|:   0.0996%
     Max |d(i,j)-d*(j,i)| =  0.000177
     Max |d(i,j)-d*(j,i)|/|d(i,j)|:   0.0996%
     Max |d(i,j)-d*(j,i)| =  0.000177
     Max |d(i,j)-d*(j,i)|/|d(i,j)|:   0.0996%
     Max |d(i,j)-d*(j,i)| =  0.000177
     Max |d(i,j)-d*(j,i)|/|d(i,j)|:   0.0997%
     Max |d(i,j)-d*(j,i)| =  0.000177
     Max |d(i,j)-d*(j,i)|/|d(i,j)|:   0.0997%
     Max |d(i,j)-d*(j,i)| =  0.000177
     Max |d(i,j)-d*(j,i)|/|d(i,j)|:   0.0997%
     Max |d(i,j)-d*(j,i)| =  0.000177
     Max |d(i,j)-d*(j,i)|/|d(i,j)|:   0.0998%
     Max |d(i,j)-d*(j,i)| =  0.000177
     Max |d(i,j)-d*(j,i)|/|d(i,j)|:   0.0998%
     Max |d(i,j)-d*(j,i)| =  0.000177
     Max |d(i,j)-d*(j,i)|/|d(i,j)|:   0.0998%
     Max |d(i,j)-d*(j,i)| =  0.000177
     Max |d(i,j)-d*(j,i)|/|d(i,j)|:   0.0998%
     Max |d(i,j)-d*(j,i)| =  0.000177
     Max |d(i,j)-d*(j,i)|/|d(i,j)|:   0.0999%
     Max |d(i,j)-d*(j,i)| =  0.000177
     Max |d(i,j)-d*(j,i)|/|d(i,j)|:   0.0999%
     Max |d(i,j)-d*(j,i)| =  0.000177
     Max |d(i,j)-d*(j,i)|/|d(i,j)|:   0.0999%
     Max |d(i,j)-d*(j,i)| =  0.000177
     Max |d(i,j)-d*(j,i)|/|d(i,j)|:   0.1000%
     Max |d(i,j)-d*(j,i)| =  0.000177
     Max |d(i,j)-d*(j,i)|/|d(i,j)|:   0.1000%
     Max |d(i,j)-d*(j,i)| =  0.000177
     Max |d(i,j)-d*(j,i)|/|d(i,j)|:   0.1000%
     Max |d(i,j)-d*(j,i)| =  0.000177
     Max |d(i,j)-d*(j,i)|/|d(i,j)|:   0.1000%
     Max |d(i,j)-d*(j,i)| =  0.000177
     Max |d(i,j)-d*(j,i)|/|d(i,j)|:   0.1001%
     Max |d(i,j)-d*(j,i)| =  0.000177
     Max |d(i,j)-d*(j,i)|/|d(i,j)|:   0.1001%
     Max |d(i,j)-d*(j,i)| =  0.000177
     Max |d(i,j)-d*(j,i)|/|d(i,j)|:   0.1001%
     Max |d(i,j)-d*(j,i)| =  0.000177
     Max |d(i,j)-d*(j,i)|/|d(i,j)|:   0.1001%
     Max |d(i,j)-d*(j,i)| =  0.000177
     Max |d(i,j)-d*(j,i)|/|d(i,j)|:   0.1002%
     Max |d(i,j)-d*(j,i)| =  0.000177
     Max |d(i,j)-d*(j,i)|/|d(i,j)|:   0.1002%
     Max |d(i,j)-d*(j,i)| =  0.000177
     Max |d(i,j)-d*(j,i)|/|d(i,j)|:   0.1002%
     Max |d(i,j)-d*(j,i)| =  0.000177
     Max |d(i,j)-d*(j,i)|/|d(i,j)|:   0.1003%
     Max |d(i,j)-d*(j,i)| =  0.000177
     Max |d(i,j)-d*(j,i)|/|d(i,j)|:   0.1003%
     Max |d(i,j)-d*(j,i)| =  0.000177
     Max |d(i,j)-d*(j,i)|/|d(i,j)|:   0.1003%
     Max |d(i,j)-d*(j,i)| =  0.000177
     Max |d(i,j)-d*(j,i)|/|d(i,j)|:   0.1003%
     Max |d(i,j)-d*(j,i)| =  0.000177
     Max |d(i,j)-d*(j,i)|/|d(i,j)|:   0.1004%
     Max |d(i,j)-d*(j,i)| =  0.000177
     Max |d(i,j)-d*(j,i)|/|d(i,j)|:   0.1004%
     Max |d(i,j)-d*(j,i)| =  0.000177
     Max |d(i,j)-d*(j,i)|/|d(i,j)|:   0.1004%
     Max |d(i,j)-d*(j,i)| =  0.000177
     Max |d(i,j)-d*(j,i)|/|d(i,j)|:   0.1004%
     Max |d(i,j)-d*(j,i)| =  0.000177
     Max |d(i,j)-d*(j,i)|/|d(i,j)|:   0.1005%
     Max |d(i,j)-d*(j,i)| =  0.000177
     Max |d(i,j)-d*(j,i)|/|d(i,j)|:   0.1005%
     Max |d(i,j)-d*(j,i)| =  0.000177
     Max |d(i,j)-d*(j,i)|/|d(i,j)|:   0.1005%
     Max |d(i,j)-d*(j,i)| =  0.000177
     Max |d(i,j)-d*(j,i)|/|d(i,j)|:   0.1006%
     Max |d(i,j)-d*(j,i)| =  0.000177
     Max |d(i,j)-d*(j,i)|/|d(i,j)|:   0.1006%
     Max |d(i,j)-d*(j,i)| =  0.000177
     Max |d(i,j)-d*(j,i)|/|d(i,j)|:   0.1006%
     Max |d(i,j)-d*(j,i)| =  0.000177
     Max |d(i,j)-d*(j,i)|/|d(i,j)|:   0.1006%
     Max |d(i,j)-d*(j,i)| =  0.000177
     Max |d(i,j)-d*(j,i)|/|d(i,j)|:   0.1007%
     Max |d(i,j)-d*(j,i)| =  0.000177
     Max |d(i,j)-d*(j,i)|/|d(i,j)|:   0.1007%
     Max |d(i,j)-d*(j,i)| =  0.000177
     Max |d(i,j)-d*(j,i)|/|d(i,j)|:   0.1007%
     Max |d(i,j)-d*(j,i)| =  0.000177
     Max |d(i,j)-d*(j,i)|/|d(i,j)|:   0.1007%
     Max |d(i,j)-d*(j,i)| =  0.000177
     Max |d(i,j)-d*(j,i)|/|d(i,j)|:   0.1008%
     Max |d(i,j)-d*(j,i)| =  0.000177
     Max |d(i,j)-d*(j,i)|/|d(i,j)|:   0.1008%
     Max |d(i,j)-d*(j,i)| =  0.000177
     Max |d(i,j)-d*(j,i)|/|d(i,j)|:   0.1008%
     Max |d(i,j)-d*(j,i)| =  0.000177
     Max |d(i,j)-d*(j,i)|/|d(i,j)|:   0.1009%
     Max |d(i,j)-d*(j,i)| =  0.000177
     Max |d(i,j)-d*(j,i)|/|d(i,j)|:   0.1009%
     Max |d(i,j)-d*(j,i)| =  0.000177
     Max |d(i,j)-d*(j,i)|/|d(i,j)|:   0.1009%
     Max |d(i,j)-d*(j,i)| =  0.000177
     Max |d(i,j)-d*(j,i)|/|d(i,j)|:   0.1009%
     Max |d(i,j)-d*(j,i)| =  0.000177
     Max |d(i,j)-d*(j,i)|/|d(i,j)|:   0.1010%
     Max |d(i,j)-d*(j,i)| =  0.000177
     Max |d(i,j)-d*(j,i)|/|d(i,j)|:   0.1010%
     Max |d(i,j)-d*(j,i)| =  0.000177
     Max |d(i,j)-d*(j,i)|/|d(i,j)|:   0.1010%
     Max |d(i,j)-d*(j,i)| =  0.000177
     Max |d(i,j)-d*(j,i)|/|d(i,j)|:   0.1010%
     Max |d(i,j)-d*(j,i)| =  0.000177
     Max |d(i,j)-d*(j,i)|/|d(i,j)|:   0.1011%
     Max |d(i,j)-d*(j,i)| =  0.000177
     Max |d(i,j)-d*(j,i)|/|d(i,j)|:   0.1011%
     Max |d(i,j)-d*(j,i)| =  0.000177
     Max |d(i,j)-d*(j,i)|/|d(i,j)|:   0.1011%
     Max |d(i,j)-d*(j,i)| =  0.000177
     Max |d(i,j)-d*(j,i)|/|d(i,j)|:   0.1011%
     Max |d(i,j)-d*(j,i)| =  0.000177
     Max |d(i,j)-d*(j,i)|/|d(i,j)|:   0.1012%
     Max |d(i,j)-d*(j,i)| =  0.000177
     Max |d(i,j)-d*(j,i)|/|d(i,j)|:   0.1012%
     Max |d(i,j)-d*(j,i)| =  0.000177
     Max |d(i,j)-d*(j,i)|/|d(i,j)|:   0.1012%
     Max |d(i,j)-d*(j,i)| =  0.000177
     Max |d(i,j)-d*(j,i)|/|d(i,j)|:   0.1012%
     Max |d(i,j)-d*(j,i)| =  0.000177
     Max |d(i,j)-d*(j,i)|/|d(i,j)|:   0.1013%
     Max |d(i,j)-d*(j,i)| =  0.000177
     Max |d(i,j)-d*(j,i)|/|d(i,j)|:   0.1013%
     Max |d(i,j)-d*(j,i)| =  0.000177
     Max |d(i,j)-d*(j,i)|/|d(i,j)|:   0.1013%
     Max |d(i,j)-d*(j,i)| =  0.000177
     Max |d(i,j)-d*(j,i)|/|d(i,j)|:   0.1013%
     Max |d(i,j)-d*(j,i)| =  0.000177
     Max |d(i,j)-d*(j,i)|/|d(i,j)|:   0.1014%
     Max |d(i,j)-d*(j,i)| =  0.000177
     Max |d(i,j)-d*(j,i)|/|d(i,j)|:   0.1014%
     Max |d(i,j)-d*(j,i)| =  0.000177
     Max |d(i,j)-d*(j,i)|/|d(i,j)|:   0.1014%
     Max |d(i,j)-d*(j,i)| =  0.000177
     Max |d(i,j)-d*(j,i)|/|d(i,j)|:   0.1014%
     Max |d(i,j)-d*(j,i)| =  0.000177
     Max |d(i,j)-d*(j,i)|/|d(i,j)|:   0.1015%
     Max |d(i,j)-d*(j,i)| =  0.000177
     Max |d(i,j)-d*(j,i)|/|d(i,j)|:   0.1015%
     Max |d(i,j)-d*(j,i)| =  0.000177
     Max |d(i,j)-d*(j,i)|/|d(i,j)|:   0.1015%
     Max |d(i,j)-d*(j,i)| =  0.000177
     Max |d(i,j)-d*(j,i)|/|d(i,j)|:   0.1015%
     Max |d(i,j)-d*(j,i)| =  0.000177
     Max |d(i,j)-d*(j,i)|/|d(i,j)|:   0.1016%
     Max |d(i,j)-d*(j,i)| =  0.000177
     Max |d(i,j)-d*(j,i)|/|d(i,j)|:   0.1016%
     Max |d(i,j)-d*(j,i)| =  0.000177
     Max |d(i,j)-d*(j,i)|/|d(i,j)|:   0.1016%
     Max |d(i,j)-d*(j,i)| =  0.000177
     Max |d(i,j)-d*(j,i)|/|d(i,j)|:   0.1016%
     Max |d(i,j)-d*(j,i)| =  0.000177
     Max |d(i,j)-d*(j,i)|/|d(i,j)|:   0.1017%
     Max |d(i,j)-d*(j,i)| =  0.000177
     Max |d(i,j)-d*(j,i)|/|d(i,j)|:   0.1017%
     Max |d(i,j)-d*(j,i)| =  0.000177
     Max |d(i,j)-d*(j,i)|/|d(i,j)|:   0.1017%
     Max |d(i,j)-d*(j,i)| =  0.000177
     Max |d(i,j)-d*(j,i)|/|d(i,j)|:   0.1017%
     Max |d(i,j)-d*(j,i)| =  0.000177
     Max |d(i,j)-d*(j,i)|/|d(i,j)|:   0.1018%
     Max |d(i,j)-d*(j,i)| =  0.000177
     Max |d(i,j)-d*(j,i)|/|d(i,j)|:   0.1018%
     Max |d(i,j)-d*(j,i)| =  0.000177
     Max |d(i,j)-d*(j,i)|/|d(i,j)|:   0.1018%
     Max |d(i,j)-d*(j,i)| =  0.000177
     Max |d(i,j)-d*(j,i)|/|d(i,j)|:   0.1018%
     Max |d(i,j)-d*(j,i)| =  0.000177
     Max |d(i,j)-d*(j,i)|/|d(i,j)|:   0.1019%
     Max |d(i,j)-d*(j,i)| =  0.000177
     Max |d(i,j)-d*(j,i)|/|d(i,j)|:   0.1019%
     Max |d(i,j)-d*(j,i)| =  0.000177
     Max |d(i,j)-d*(j,i)|/|d(i,j)|:   0.1019%
     Max |d(i,j)-d*(j,i)| =  0.000177
     Max |d(i,j)-d*(j,i)|/|d(i,j)|:   0.1019%
     Max |d(i,j)-d*(j,i)| =  0.000177
     Max |d(i,j)-d*(j,i)|/|d(i,j)|:   0.1020%
     Max |d(i,j)-d*(j,i)| =  0.000177
     Max |d(i,j)-d*(j,i)|/|d(i,j)|:   0.1020%
     Max |d(i,j)-d*(j,i)| =  0.000177
     Max |d(i,j)-d*(j,i)|/|d(i,j)|:   0.1020%
     Max |d(i,j)-d*(j,i)| =  0.000177
     Max |d(i,j)-d*(j,i)|/|d(i,j)|:   0.1020%
     Max |d(i,j)-d*(j,i)| =  0.000177
     Max |d(i,j)-d*(j,i)|/|d(i,j)|:   0.1020%
     Max |d(i,j)-d*(j,i)| =  0.000177
     Max |d(i,j)-d*(j,i)|/|d(i,j)|:   0.1021%
     Max |d(i,j)-d*(j,i)| =  0.000177
     Max |d(i,j)-d*(j,i)|/|d(i,j)|:   0.1021%
     Max |d(i,j)-d*(j,i)| =  0.000177
     Max |d(i,j)-d*(j,i)|/|d(i,j)|:   0.1021%
     Max |d(i,j)-d*(j,i)| =  0.000177
     Max |d(i,j)-d*(j,i)|/|d(i,j)|:   0.1021%
     Max |d(i,j)-d*(j,i)| =  0.000177
     Max |d(i,j)-d*(j,i)|/|d(i,j)|:   0.1022%
     Max |d(i,j)-d*(j,i)| =  0.000177
     Max |d(i,j)-d*(j,i)|/|d(i,j)|:   0.1022%
 
     MATDYN       :     4.20s CPU         4.83s WALL

 
   This run was terminated on:  20: 9:35   5May2018            

=------------------------------------------------------------------------------=
   JOB DONE.
=------------------------------------------------------------------------------=
