
     Program PWSCF v.6.2.2 starts on 28Apr2018 at 21:17:47 

     This program is part of the open-source Quantum ESPRESSO suite
     for quantum simulation of materials; please cite
         "P. Giannozzi et al., J. Phys.:Condens. Matter 21 395502 (2009);
         "P. Giannozzi et al., J. Phys.:Condens. Matter 29 465901 (2017);
          URL http://www.quantum-espresso.org", 
     in publications or presentations arising from this work. More details at
     http://www.quantum-espresso.org/quote

     Parallel version (MPI), running on     2 processors

     MPI processes distributed on     1 nodes
     R & G space division:  proc/nbgrp/npool/nimage =       2
     Reading input from el-bands.in
Warning: card &IONS ignored
Warning: card / ignored
Warning: card &CELL ignored
Warning: card / ignored

     Current dimensions of program PWSCF are:
     Max number of different atomic species (ntypx) = 10
     Max number of k-points (npk) =  40000
     Max angular momentum in pseudopotentials (lmaxx) =  3

     Atomic positions and unit cell read from directory:
     ./SnO2.save/
 

     Subspace diagonalization in iterative solution of the eigenvalue problem:
     a serial algorithm will be used

 
     Parallelization info
     --------------------
     sticks:   dense  smooth     PW     G-vecs:    dense   smooth      PW
     Min        1000    1000    296                22472    22472    3577
     Max        1001    1001    297                22473    22473    3578
     Sum        2001    2001    593                44945    44945    7155
 


     bravais-lattice index     =            6
     lattice parameter (alat)  =       9.1370  a.u.
     unit-cell volume          =     512.3005 (a.u.)^3
     number of atoms/cell      =            6
     number of atomic types    =            2
     number of electrons       =        52.00
     number of Kohn-Sham states=           30
     kinetic-energy cutoff     =      75.0000  Ry
     charge density cutoff     =     300.0000  Ry
     Exchange-correlation      = PBE ( 1  4  3  4 0 0)

     celldm(1)=   9.137033  celldm(2)=   1.000000  celldm(3)=   0.671598
     celldm(4)=   0.000000  celldm(5)=   0.000000  celldm(6)=   0.000000

     crystal axes: (cart. coord. in units of alat)
               a(1) = (   1.000000   0.000000   0.000000 )  
               a(2) = (   0.000000   1.000000   0.000000 )  
               a(3) = (   0.000000   0.000000   0.671598 )  

     reciprocal axes: (cart. coord. in units 2 pi/alat)
               b(1) = (  1.000000  0.000000  0.000000 )  
               b(2) = (  0.000000  1.000000  0.000000 )  
               b(3) = (  0.000000  0.000000  1.488987 )  


     PseudoPot. # 1 for Sn read from file:
     ../Pseudo_potentials/Sn_PBE.upf
     MD5 check sum: 78e6386ae56e929f0568ae8bf606a80c
     Pseudo is Norm-conserving + core correction, Zval = 14.0
     Generated using ONCVPSP code by D. R. Hamann
     Using radial grid of 1628 points,  6 beta functions with: 
                l(1) =   0
                l(2) =   0
                l(3) =   1
                l(4) =   1
                l(5) =   2
                l(6) =   2

     PseudoPot. # 2 for O  read from file:
     ../Pseudo_potentials/O_PBE.upf
     MD5 check sum: 3e3f909f7470e8921608ab6b1f57bbae
     Pseudo is Norm-conserving + core correction, Zval =  6.0
     Generated using ONCVPSP code by D. R. Hamann
     Using radial grid of  936 points,  5 beta functions with: 
                l(1) =   0
                l(2) =   0
                l(3) =   1
                l(4) =   1
                l(5) =   2

     atomic species   valence    mass     pseudopotential
        Sn            14.00   118.71000     Sn( 1.00)
        O              6.00    15.99900     O ( 1.00)

      4 Sym. Ops. (no inversion) found


                                    s                        frac. trans.

      isym =  1     identity                                     

 cryst.   s( 1) = (     1          0          0      )
                  (     0          1          0      )
                  (     0          0          1      )

 cart.    s( 1) = (  1.0000000  0.0000000  0.0000000 )
                  (  0.0000000  1.0000000  0.0000000 )
                  (  0.0000000  0.0000000  1.0000000 )


      isym =  2     180 deg rotation - cart. axis [1,1,0]        

 cryst.   s( 2) = (     0          1          0      )
                  (     1          0          0      )
                  (     0          0         -1      )

 cart.    s( 2) = (  0.0000000  1.0000000  0.0000000 )
                  (  1.0000000  0.0000000  0.0000000 )
                  (  0.0000000  0.0000000 -1.0000000 )


      isym =  3     inv. 180 deg rotation - cart. axis [0,0,1]   

 cryst.   s( 3) = (     1          0          0      )
                  (     0          1          0      )
                  (     0          0         -1      )

 cart.    s( 3) = (  1.0000000  0.0000000  0.0000000 )
                  (  0.0000000  1.0000000  0.0000000 )
                  (  0.0000000  0.0000000 -1.0000000 )


      isym =  4     inv. 180 deg rotation - cart. axis [1,-1,0]  

 cryst.   s( 4) = (     0          1          0      )
                  (     1          0          0      )
                  (     0          0          1      )

 cart.    s( 4) = (  0.0000000  1.0000000  0.0000000 )
                  (  1.0000000  0.0000000  0.0000000 )
                  (  0.0000000  0.0000000  1.0000000 )


     point group C_2v (mm2) 
     there are  4 classes
     the character table:

       E     C2    s_v   s_v' 
A_1    1.00  1.00  1.00  1.00
A_2    1.00  1.00 -1.00 -1.00
B_1    1.00 -1.00  1.00 -1.00
B_2    1.00 -1.00 -1.00  1.00

     the symmetry operations in each class and the name of the first element:

     E        1
          identity                                               
     C2       2
          180 deg rotation - cart. axis [1,1,0]                  
     s_v      3
          inv. 180 deg rotation - cart. axis [0,0,1]             
     s_v'     4
          inv. 180 deg rotation - cart. axis [1,-1,0]            

   Cartesian axes

     site n.     atom                  positions (alat units)
         1           Sn  tau(   1) = (  -0.0003320  -0.0003320   0.0000000  )
         2           Sn  tau(   2) = (   0.4996675   0.4996675   0.3357989  )
         3           O   tau(   3) = (   0.8063692   0.1929618   0.3357989  )
         4           O   tau(   4) = (   0.1929618   0.8063692   0.3357989  )
         5           O   tau(   5) = (   0.3063705   0.3063705   0.0000000  )
         6           O   tau(   6) = (   0.6929630   0.6929630   0.0000000  )

   Crystallographic axes

     site n.     atom                  positions (cryst. coord.)
         1           Sn  tau(   1) = ( -0.0003320 -0.0003320  0.0000000  )
         2           Sn  tau(   2) = (  0.4996675  0.4996675  0.5000000  )
         3           O   tau(   3) = (  0.8063692  0.1929618  0.5000000  )
         4           O   tau(   4) = (  0.1929618  0.8063692  0.5000000  )
         5           O   tau(   5) = (  0.3063705  0.3063705  0.0000000  )
         6           O   tau(   6) = (  0.6929630  0.6929630  0.0000000  )

     number of k points=   284
                       cart. coord. in units 2pi/alat
        k(    1) = (   0.0000000   0.0000000   0.0000000), wk =   0.0070423
        k(    2) = (   0.0000000   0.0200000   0.0000000), wk =   0.0070423
        k(    3) = (   0.0000000   0.0400000   0.0000000), wk =   0.0070423
        k(    4) = (   0.0000000   0.0600000   0.0000000), wk =   0.0070423
        k(    5) = (   0.0000000   0.0800000   0.0000000), wk =   0.0070423
        k(    6) = (   0.0000000   0.1000000   0.0000000), wk =   0.0070423
        k(    7) = (   0.0000000   0.1200000   0.0000000), wk =   0.0070423
        k(    8) = (   0.0000000   0.1400000   0.0000000), wk =   0.0070423
        k(    9) = (   0.0000000   0.1600000   0.0000000), wk =   0.0070423
        k(   10) = (   0.0000000   0.1800000   0.0000000), wk =   0.0070423
        k(   11) = (   0.0000000   0.2000000   0.0000000), wk =   0.0070423
        k(   12) = (   0.0000000   0.2200000   0.0000000), wk =   0.0070423
        k(   13) = (   0.0000000   0.2400000   0.0000000), wk =   0.0070423
        k(   14) = (   0.0000000   0.2600000   0.0000000), wk =   0.0070423
        k(   15) = (   0.0000000   0.2800000   0.0000000), wk =   0.0070423
        k(   16) = (   0.0000000   0.3000000   0.0000000), wk =   0.0070423
        k(   17) = (   0.0000000   0.3200000   0.0000000), wk =   0.0070423
        k(   18) = (   0.0000000   0.3400000   0.0000000), wk =   0.0070423
        k(   19) = (   0.0000000   0.3600000   0.0000000), wk =   0.0070423
        k(   20) = (   0.0000000   0.3800000   0.0000000), wk =   0.0070423
        k(   21) = (   0.0000000   0.4000000   0.0000000), wk =   0.0070423
        k(   22) = (   0.0000000   0.4200000   0.0000000), wk =   0.0070423
        k(   23) = (   0.0000000   0.4400000   0.0000000), wk =   0.0070423
        k(   24) = (   0.0000000   0.4600000   0.0000000), wk =   0.0070423
        k(   25) = (   0.0000000   0.4800000   0.0000000), wk =   0.0070423
        k(   26) = (   0.0000000   0.5000000   0.0000000), wk =   0.0070423
        k(   27) = (   0.0200000   0.5000000   0.0000000), wk =   0.0070423
        k(   28) = (   0.0400000   0.5000000   0.0000000), wk =   0.0070423
        k(   29) = (   0.0600000   0.5000000   0.0000000), wk =   0.0070423
        k(   30) = (   0.0800000   0.5000000   0.0000000), wk =   0.0070423
        k(   31) = (   0.1000000   0.5000000   0.0000000), wk =   0.0070423
        k(   32) = (   0.1200000   0.5000000   0.0000000), wk =   0.0070423
        k(   33) = (   0.1400000   0.5000000   0.0000000), wk =   0.0070423
        k(   34) = (   0.1600000   0.5000000   0.0000000), wk =   0.0070423
        k(   35) = (   0.1800000   0.5000000   0.0000000), wk =   0.0070423
        k(   36) = (   0.2000000   0.5000000   0.0000000), wk =   0.0070423
        k(   37) = (   0.2200000   0.5000000   0.0000000), wk =   0.0070423
        k(   38) = (   0.2400000   0.5000000   0.0000000), wk =   0.0070423
        k(   39) = (   0.2600000   0.5000000   0.0000000), wk =   0.0070423
        k(   40) = (   0.2800000   0.5000000   0.0000000), wk =   0.0070423
        k(   41) = (   0.3000000   0.5000000   0.0000000), wk =   0.0070423
        k(   42) = (   0.3200000   0.5000000   0.0000000), wk =   0.0070423
        k(   43) = (   0.3400000   0.5000000   0.0000000), wk =   0.0070423
        k(   44) = (   0.3600000   0.5000000   0.0000000), wk =   0.0070423
        k(   45) = (   0.3800000   0.5000000   0.0000000), wk =   0.0070423
        k(   46) = (   0.4000000   0.5000000   0.0000000), wk =   0.0070423
        k(   47) = (   0.4200000   0.5000000   0.0000000), wk =   0.0070423
        k(   48) = (   0.4400000   0.5000000   0.0000000), wk =   0.0070423
        k(   49) = (   0.4600000   0.5000000   0.0000000), wk =   0.0070423
        k(   50) = (   0.4800000   0.5000000   0.0000000), wk =   0.0070423
        k(   51) = (   0.5000000   0.5000000   0.0000000), wk =   0.0070423
        k(   52) = (   0.4857143   0.4857143   0.0000000), wk =   0.0070423
        k(   53) = (   0.4714286   0.4714286   0.0000000), wk =   0.0070423
        k(   54) = (   0.4571429   0.4571429   0.0000000), wk =   0.0070423
        k(   55) = (   0.4428571   0.4428571   0.0000000), wk =   0.0070423
        k(   56) = (   0.4285714   0.4285714   0.0000000), wk =   0.0070423
        k(   57) = (   0.4142857   0.4142857   0.0000000), wk =   0.0070423
        k(   58) = (   0.4000000   0.4000000   0.0000000), wk =   0.0070423
        k(   59) = (   0.3857143   0.3857143   0.0000000), wk =   0.0070423
        k(   60) = (   0.3714286   0.3714286   0.0000000), wk =   0.0070423
        k(   61) = (   0.3571429   0.3571429   0.0000000), wk =   0.0070423
        k(   62) = (   0.3428571   0.3428571   0.0000000), wk =   0.0070423
        k(   63) = (   0.3285714   0.3285714   0.0000000), wk =   0.0070423
        k(   64) = (   0.3142857   0.3142857   0.0000000), wk =   0.0070423
        k(   65) = (   0.3000000   0.3000000   0.0000000), wk =   0.0070423
        k(   66) = (   0.2857143   0.2857143   0.0000000), wk =   0.0070423
        k(   67) = (   0.2714286   0.2714286   0.0000000), wk =   0.0070423
        k(   68) = (   0.2571429   0.2571429   0.0000000), wk =   0.0070423
        k(   69) = (   0.2428571   0.2428571   0.0000000), wk =   0.0070423
        k(   70) = (   0.2285714   0.2285714   0.0000000), wk =   0.0070423
        k(   71) = (   0.2142857   0.2142857   0.0000000), wk =   0.0070423
        k(   72) = (   0.2000000   0.2000000   0.0000000), wk =   0.0070423
        k(   73) = (   0.1857143   0.1857143   0.0000000), wk =   0.0070423
        k(   74) = (   0.1714286   0.1714286   0.0000000), wk =   0.0070423
        k(   75) = (   0.1571429   0.1571429   0.0000000), wk =   0.0070423
        k(   76) = (   0.1428571   0.1428571   0.0000000), wk =   0.0070423
        k(   77) = (   0.1285714   0.1285714   0.0000000), wk =   0.0070423
        k(   78) = (   0.1142857   0.1142857   0.0000000), wk =   0.0070423
        k(   79) = (   0.1000000   0.1000000   0.0000000), wk =   0.0070423
        k(   80) = (   0.0857143   0.0857143   0.0000000), wk =   0.0070423
        k(   81) = (   0.0714286   0.0714286   0.0000000), wk =   0.0070423
        k(   82) = (   0.0571429   0.0571429   0.0000000), wk =   0.0070423
        k(   83) = (   0.0428571   0.0428571   0.0000000), wk =   0.0070423
        k(   84) = (   0.0285714   0.0285714   0.0000000), wk =   0.0070423
        k(   85) = (   0.0142857   0.0142857   0.0000000), wk =   0.0070423
        k(   86) = (   0.0000000   0.0000000   0.0000000), wk =   0.0070423
        k(   87) = (   0.0000000   0.0000000   0.0201214), wk =   0.0070423
        k(   88) = (   0.0000000   0.0000000   0.0402429), wk =   0.0070423
        k(   89) = (   0.0000000   0.0000000   0.0603643), wk =   0.0070423
        k(   90) = (   0.0000000   0.0000000   0.0804858), wk =   0.0070423
        k(   91) = (   0.0000000   0.0000000   0.1006072), wk =   0.0070423
        k(   92) = (   0.0000000   0.0000000   0.1207286), wk =   0.0070423
        k(   93) = (   0.0000000   0.0000000   0.1408501), wk =   0.0070423
        k(   94) = (   0.0000000   0.0000000   0.1609715), wk =   0.0070423
        k(   95) = (   0.0000000   0.0000000   0.1810930), wk =   0.0070423
        k(   96) = (   0.0000000   0.0000000   0.2012144), wk =   0.0070423
        k(   97) = (   0.0000000   0.0000000   0.2213358), wk =   0.0070423
        k(   98) = (   0.0000000   0.0000000   0.2414573), wk =   0.0070423
        k(   99) = (   0.0000000   0.0000000   0.2615787), wk =   0.0070423
        k(  100) = (   0.0000000   0.0000000   0.2817002), wk =   0.0070423
        k(  101) = (   0.0000000   0.0000000   0.3018216), wk =   0.0070423
        k(  102) = (   0.0000000   0.0000000   0.3219430), wk =   0.0070423
        k(  103) = (   0.0000000   0.0000000   0.3420645), wk =   0.0070423
        k(  104) = (   0.0000000   0.0000000   0.3621859), wk =   0.0070423
        k(  105) = (   0.0000000   0.0000000   0.3823074), wk =   0.0070423
        k(  106) = (   0.0000000   0.0000000   0.4024288), wk =   0.0070423
        k(  107) = (   0.0000000   0.0000000   0.4225502), wk =   0.0070423
        k(  108) = (   0.0000000   0.0000000   0.4426717), wk =   0.0070423
        k(  109) = (   0.0000000   0.0000000   0.4627931), wk =   0.0070423
        k(  110) = (   0.0000000   0.0000000   0.4829146), wk =   0.0070423
        k(  111) = (   0.0000000   0.0000000   0.5030360), wk =   0.0070423
        k(  112) = (   0.0000000   0.0000000   0.5231574), wk =   0.0070423
        k(  113) = (   0.0000000   0.0000000   0.5432789), wk =   0.0070423
        k(  114) = (   0.0000000   0.0000000   0.5634003), wk =   0.0070423
        k(  115) = (   0.0000000   0.0000000   0.5835218), wk =   0.0070423
        k(  116) = (   0.0000000   0.0000000   0.6036432), wk =   0.0070423
        k(  117) = (   0.0000000   0.0000000   0.6237646), wk =   0.0070423
        k(  118) = (   0.0000000   0.0000000   0.6438861), wk =   0.0070423
        k(  119) = (   0.0000000   0.0000000   0.6640075), wk =   0.0070423
        k(  120) = (   0.0000000   0.0000000   0.6841290), wk =   0.0070423
        k(  121) = (   0.0000000   0.0000000   0.7042504), wk =   0.0070423
        k(  122) = (   0.0000000   0.0000000   0.7243718), wk =   0.0070423
        k(  123) = (   0.0000000   0.0000000   0.7444933), wk =   0.0070423
        k(  124) = (   0.0000000   0.0200000   0.7444933), wk =   0.0070423
        k(  125) = (   0.0000000   0.0400000   0.7444933), wk =   0.0070423
        k(  126) = (   0.0000000   0.0600000   0.7444933), wk =   0.0070423
        k(  127) = (   0.0000000   0.0800000   0.7444933), wk =   0.0070423
        k(  128) = (   0.0000000   0.1000000   0.7444933), wk =   0.0070423
        k(  129) = (   0.0000000   0.1200000   0.7444933), wk =   0.0070423
        k(  130) = (   0.0000000   0.1400000   0.7444933), wk =   0.0070423
        k(  131) = (   0.0000000   0.1600000   0.7444933), wk =   0.0070423
        k(  132) = (   0.0000000   0.1800000   0.7444933), wk =   0.0070423
        k(  133) = (   0.0000000   0.2000000   0.7444933), wk =   0.0070423
        k(  134) = (   0.0000000   0.2200000   0.7444933), wk =   0.0070423
        k(  135) = (   0.0000000   0.2400000   0.7444933), wk =   0.0070423
        k(  136) = (   0.0000000   0.2600000   0.7444933), wk =   0.0070423
        k(  137) = (   0.0000000   0.2800000   0.7444933), wk =   0.0070423
        k(  138) = (   0.0000000   0.3000000   0.7444933), wk =   0.0070423
        k(  139) = (   0.0000000   0.3200000   0.7444933), wk =   0.0070423
        k(  140) = (   0.0000000   0.3400000   0.7444933), wk =   0.0070423
        k(  141) = (   0.0000000   0.3600000   0.7444933), wk =   0.0070423
        k(  142) = (   0.0000000   0.3800000   0.7444933), wk =   0.0070423
        k(  143) = (   0.0000000   0.4000000   0.7444933), wk =   0.0070423
        k(  144) = (   0.0000000   0.4200000   0.7444933), wk =   0.0070423
        k(  145) = (   0.0000000   0.4400000   0.7444933), wk =   0.0070423
        k(  146) = (   0.0000000   0.4600000   0.7444933), wk =   0.0070423
        k(  147) = (   0.0000000   0.4800000   0.7444933), wk =   0.0070423
        k(  148) = (   0.0000000   0.5000000   0.7444933), wk =   0.0070423
        k(  149) = (   0.0200000   0.5000000   0.7444933), wk =   0.0070423
        k(  150) = (   0.0400000   0.5000000   0.7444933), wk =   0.0070423
        k(  151) = (   0.0600000   0.5000000   0.7444933), wk =   0.0070423
        k(  152) = (   0.0800000   0.5000000   0.7444933), wk =   0.0070423
        k(  153) = (   0.1000000   0.5000000   0.7444933), wk =   0.0070423
        k(  154) = (   0.1200000   0.5000000   0.7444933), wk =   0.0070423
        k(  155) = (   0.1400000   0.5000000   0.7444933), wk =   0.0070423
        k(  156) = (   0.1600000   0.5000000   0.7444933), wk =   0.0070423
        k(  157) = (   0.1800000   0.5000000   0.7444933), wk =   0.0070423
        k(  158) = (   0.2000000   0.5000000   0.7444933), wk =   0.0070423
        k(  159) = (   0.2200000   0.5000000   0.7444933), wk =   0.0070423
        k(  160) = (   0.2400000   0.5000000   0.7444933), wk =   0.0070423
        k(  161) = (   0.2600000   0.5000000   0.7444933), wk =   0.0070423
        k(  162) = (   0.2800000   0.5000000   0.7444933), wk =   0.0070423
        k(  163) = (   0.3000000   0.5000000   0.7444933), wk =   0.0070423
        k(  164) = (   0.3200000   0.5000000   0.7444933), wk =   0.0070423
        k(  165) = (   0.3400000   0.5000000   0.7444933), wk =   0.0070423
        k(  166) = (   0.3600000   0.5000000   0.7444933), wk =   0.0070423
        k(  167) = (   0.3800000   0.5000000   0.7444933), wk =   0.0070423
        k(  168) = (   0.4000000   0.5000000   0.7444933), wk =   0.0070423
        k(  169) = (   0.4200000   0.5000000   0.7444933), wk =   0.0070423
        k(  170) = (   0.4400000   0.5000000   0.7444933), wk =   0.0070423
        k(  171) = (   0.4600000   0.5000000   0.7444933), wk =   0.0070423
        k(  172) = (   0.4800000   0.5000000   0.7444933), wk =   0.0070423
        k(  173) = (   0.5000000   0.5000000   0.7444933), wk =   0.0070423
        k(  174) = (   0.4857143   0.4857143   0.7444933), wk =   0.0070423
        k(  175) = (   0.4714286   0.4714286   0.7444933), wk =   0.0070423
        k(  176) = (   0.4571429   0.4571429   0.7444933), wk =   0.0070423
        k(  177) = (   0.4428571   0.4428571   0.7444933), wk =   0.0070423
        k(  178) = (   0.4285714   0.4285714   0.7444933), wk =   0.0070423
        k(  179) = (   0.4142857   0.4142857   0.7444933), wk =   0.0070423
        k(  180) = (   0.4000000   0.4000000   0.7444933), wk =   0.0070423
        k(  181) = (   0.3857143   0.3857143   0.7444933), wk =   0.0070423
        k(  182) = (   0.3714286   0.3714286   0.7444933), wk =   0.0070423
        k(  183) = (   0.3571429   0.3571429   0.7444933), wk =   0.0070423
        k(  184) = (   0.3428571   0.3428571   0.7444933), wk =   0.0070423
        k(  185) = (   0.3285714   0.3285714   0.7444933), wk =   0.0070423
        k(  186) = (   0.3142857   0.3142857   0.7444933), wk =   0.0070423
        k(  187) = (   0.3000000   0.3000000   0.7444933), wk =   0.0070423
        k(  188) = (   0.2857143   0.2857143   0.7444933), wk =   0.0070423
        k(  189) = (   0.2714286   0.2714286   0.7444933), wk =   0.0070423
        k(  190) = (   0.2571429   0.2571429   0.7444933), wk =   0.0070423
        k(  191) = (   0.2428571   0.2428571   0.7444933), wk =   0.0070423
        k(  192) = (   0.2285714   0.2285714   0.7444933), wk =   0.0070423
        k(  193) = (   0.2142857   0.2142857   0.7444933), wk =   0.0070423
        k(  194) = (   0.2000000   0.2000000   0.7444933), wk =   0.0070423
        k(  195) = (   0.1857143   0.1857143   0.7444933), wk =   0.0070423
        k(  196) = (   0.1714286   0.1714286   0.7444933), wk =   0.0070423
        k(  197) = (   0.1571429   0.1571429   0.7444933), wk =   0.0070423
        k(  198) = (   0.1428571   0.1428571   0.7444933), wk =   0.0070423
        k(  199) = (   0.1285714   0.1285714   0.7444933), wk =   0.0070423
        k(  200) = (   0.1142857   0.1142857   0.7444933), wk =   0.0070423
        k(  201) = (   0.1000000   0.1000000   0.7444933), wk =   0.0070423
        k(  202) = (   0.0857143   0.0857143   0.7444933), wk =   0.0070423
        k(  203) = (   0.0714286   0.0714286   0.7444933), wk =   0.0070423
        k(  204) = (   0.0571429   0.0571429   0.7444933), wk =   0.0070423
        k(  205) = (   0.0428571   0.0428571   0.7444933), wk =   0.0070423
        k(  206) = (   0.0285714   0.0285714   0.7444933), wk =   0.0070423
        k(  207) = (   0.0142857   0.0142857   0.7444933), wk =   0.0070423
        k(  208) = (   0.0000000   0.0000000   0.7444933), wk =   0.0070423
        k(  209) = (   0.0000000   0.5000000   0.0000000), wk =   0.0070423
        k(  210) = (   0.0000000   0.5000000   0.0201214), wk =   0.0070423
        k(  211) = (   0.0000000   0.5000000   0.0402429), wk =   0.0070423
        k(  212) = (   0.0000000   0.5000000   0.0603643), wk =   0.0070423
        k(  213) = (   0.0000000   0.5000000   0.0804858), wk =   0.0070423
        k(  214) = (   0.0000000   0.5000000   0.1006072), wk =   0.0070423
        k(  215) = (   0.0000000   0.5000000   0.1207286), wk =   0.0070423
        k(  216) = (   0.0000000   0.5000000   0.1408501), wk =   0.0070423
        k(  217) = (   0.0000000   0.5000000   0.1609715), wk =   0.0070423
        k(  218) = (   0.0000000   0.5000000   0.1810930), wk =   0.0070423
        k(  219) = (   0.0000000   0.5000000   0.2012144), wk =   0.0070423
        k(  220) = (   0.0000000   0.5000000   0.2213358), wk =   0.0070423
        k(  221) = (   0.0000000   0.5000000   0.2414573), wk =   0.0070423
        k(  222) = (   0.0000000   0.5000000   0.2615787), wk =   0.0070423
        k(  223) = (   0.0000000   0.5000000   0.2817002), wk =   0.0070423
        k(  224) = (   0.0000000   0.5000000   0.3018216), wk =   0.0070423
        k(  225) = (   0.0000000   0.5000000   0.3219430), wk =   0.0070423
        k(  226) = (   0.0000000   0.5000000   0.3420645), wk =   0.0070423
        k(  227) = (   0.0000000   0.5000000   0.3621859), wk =   0.0070423
        k(  228) = (   0.0000000   0.5000000   0.3823074), wk =   0.0070423
        k(  229) = (   0.0000000   0.5000000   0.4024288), wk =   0.0070423
        k(  230) = (   0.0000000   0.5000000   0.4225502), wk =   0.0070423
        k(  231) = (   0.0000000   0.5000000   0.4426717), wk =   0.0070423
        k(  232) = (   0.0000000   0.5000000   0.4627931), wk =   0.0070423
        k(  233) = (   0.0000000   0.5000000   0.4829146), wk =   0.0070423
        k(  234) = (   0.0000000   0.5000000   0.5030360), wk =   0.0070423
        k(  235) = (   0.0000000   0.5000000   0.5231574), wk =   0.0070423
        k(  236) = (   0.0000000   0.5000000   0.5432789), wk =   0.0070423
        k(  237) = (   0.0000000   0.5000000   0.5634003), wk =   0.0070423
        k(  238) = (   0.0000000   0.5000000   0.5835218), wk =   0.0070423
        k(  239) = (   0.0000000   0.5000000   0.6036432), wk =   0.0070423
        k(  240) = (   0.0000000   0.5000000   0.6237646), wk =   0.0070423
        k(  241) = (   0.0000000   0.5000000   0.6438861), wk =   0.0070423
        k(  242) = (   0.0000000   0.5000000   0.6640075), wk =   0.0070423
        k(  243) = (   0.0000000   0.5000000   0.6841290), wk =   0.0070423
        k(  244) = (   0.0000000   0.5000000   0.7042504), wk =   0.0070423
        k(  245) = (   0.0000000   0.5000000   0.7243718), wk =   0.0070423
        k(  246) = (   0.0000000   0.5000000   0.7444933), wk =   0.0070423
        k(  247) = (   0.5000000   0.5000000   0.0000000), wk =   0.0070423
        k(  248) = (   0.5000000   0.5000000   0.0201214), wk =   0.0070423
        k(  249) = (   0.5000000   0.5000000   0.0402429), wk =   0.0070423
        k(  250) = (   0.5000000   0.5000000   0.0603643), wk =   0.0070423
        k(  251) = (   0.5000000   0.5000000   0.0804858), wk =   0.0070423
        k(  252) = (   0.5000000   0.5000000   0.1006072), wk =   0.0070423
        k(  253) = (   0.5000000   0.5000000   0.1207286), wk =   0.0070423
        k(  254) = (   0.5000000   0.5000000   0.1408501), wk =   0.0070423
        k(  255) = (   0.5000000   0.5000000   0.1609715), wk =   0.0070423
        k(  256) = (   0.5000000   0.5000000   0.1810930), wk =   0.0070423
        k(  257) = (   0.5000000   0.5000000   0.2012144), wk =   0.0070423
        k(  258) = (   0.5000000   0.5000000   0.2213358), wk =   0.0070423
        k(  259) = (   0.5000000   0.5000000   0.2414573), wk =   0.0070423
        k(  260) = (   0.5000000   0.5000000   0.2615787), wk =   0.0070423
        k(  261) = (   0.5000000   0.5000000   0.2817002), wk =   0.0070423
        k(  262) = (   0.5000000   0.5000000   0.3018216), wk =   0.0070423
        k(  263) = (   0.5000000   0.5000000   0.3219430), wk =   0.0070423
        k(  264) = (   0.5000000   0.5000000   0.3420645), wk =   0.0070423
        k(  265) = (   0.5000000   0.5000000   0.3621859), wk =   0.0070423
        k(  266) = (   0.5000000   0.5000000   0.3823074), wk =   0.0070423
        k(  267) = (   0.5000000   0.5000000   0.4024288), wk =   0.0070423
        k(  268) = (   0.5000000   0.5000000   0.4225502), wk =   0.0070423
        k(  269) = (   0.5000000   0.5000000   0.4426717), wk =   0.0070423
        k(  270) = (   0.5000000   0.5000000   0.4627931), wk =   0.0070423
        k(  271) = (   0.5000000   0.5000000   0.4829146), wk =   0.0070423
        k(  272) = (   0.5000000   0.5000000   0.5030360), wk =   0.0070423
        k(  273) = (   0.5000000   0.5000000   0.5231574), wk =   0.0070423
        k(  274) = (   0.5000000   0.5000000   0.5432789), wk =   0.0070423
        k(  275) = (   0.5000000   0.5000000   0.5634003), wk =   0.0070423
        k(  276) = (   0.5000000   0.5000000   0.5835218), wk =   0.0070423
        k(  277) = (   0.5000000   0.5000000   0.6036432), wk =   0.0070423
        k(  278) = (   0.5000000   0.5000000   0.6237646), wk =   0.0070423
        k(  279) = (   0.5000000   0.5000000   0.6438861), wk =   0.0070423
        k(  280) = (   0.5000000   0.5000000   0.6640075), wk =   0.0070423
        k(  281) = (   0.5000000   0.5000000   0.6841290), wk =   0.0070423
        k(  282) = (   0.5000000   0.5000000   0.7042504), wk =   0.0070423
        k(  283) = (   0.5000000   0.5000000   0.7243718), wk =   0.0070423
        k(  284) = (   0.5000000   0.5000000   0.7444933), wk =   0.0070423

                       cryst. coord.
        k(    1) = (   0.0000000   0.0000000   0.0000000), wk =   0.0070423
        k(    2) = (   0.0000000   0.0200000   0.0000000), wk =   0.0070423
        k(    3) = (   0.0000000   0.0400000   0.0000000), wk =   0.0070423
        k(    4) = (   0.0000000   0.0600000   0.0000000), wk =   0.0070423
        k(    5) = (   0.0000000   0.0800000   0.0000000), wk =   0.0070423
        k(    6) = (   0.0000000   0.1000000   0.0000000), wk =   0.0070423
        k(    7) = (   0.0000000   0.1200000   0.0000000), wk =   0.0070423
        k(    8) = (   0.0000000   0.1400000   0.0000000), wk =   0.0070423
        k(    9) = (   0.0000000   0.1600000   0.0000000), wk =   0.0070423
        k(   10) = (   0.0000000   0.1800000   0.0000000), wk =   0.0070423
        k(   11) = (   0.0000000   0.2000000   0.0000000), wk =   0.0070423
        k(   12) = (   0.0000000   0.2200000   0.0000000), wk =   0.0070423
        k(   13) = (   0.0000000   0.2400000   0.0000000), wk =   0.0070423
        k(   14) = (   0.0000000   0.2600000   0.0000000), wk =   0.0070423
        k(   15) = (   0.0000000   0.2800000   0.0000000), wk =   0.0070423
        k(   16) = (   0.0000000   0.3000000   0.0000000), wk =   0.0070423
        k(   17) = (   0.0000000   0.3200000   0.0000000), wk =   0.0070423
        k(   18) = (   0.0000000   0.3400000   0.0000000), wk =   0.0070423
        k(   19) = (   0.0000000   0.3600000   0.0000000), wk =   0.0070423
        k(   20) = (   0.0000000   0.3800000   0.0000000), wk =   0.0070423
        k(   21) = (   0.0000000   0.4000000   0.0000000), wk =   0.0070423
        k(   22) = (   0.0000000   0.4200000   0.0000000), wk =   0.0070423
        k(   23) = (   0.0000000   0.4400000   0.0000000), wk =   0.0070423
        k(   24) = (   0.0000000   0.4600000   0.0000000), wk =   0.0070423
        k(   25) = (   0.0000000   0.4800000   0.0000000), wk =   0.0070423
        k(   26) = (   0.0000000   0.5000000   0.0000000), wk =   0.0070423
        k(   27) = (   0.0200000   0.5000000   0.0000000), wk =   0.0070423
        k(   28) = (   0.0400000   0.5000000   0.0000000), wk =   0.0070423
        k(   29) = (   0.0600000   0.5000000   0.0000000), wk =   0.0070423
        k(   30) = (   0.0800000   0.5000000   0.0000000), wk =   0.0070423
        k(   31) = (   0.1000000   0.5000000   0.0000000), wk =   0.0070423
        k(   32) = (   0.1200000   0.5000000   0.0000000), wk =   0.0070423
        k(   33) = (   0.1400000   0.5000000   0.0000000), wk =   0.0070423
        k(   34) = (   0.1600000   0.5000000   0.0000000), wk =   0.0070423
        k(   35) = (   0.1800000   0.5000000   0.0000000), wk =   0.0070423
        k(   36) = (   0.2000000   0.5000000   0.0000000), wk =   0.0070423
        k(   37) = (   0.2200000   0.5000000   0.0000000), wk =   0.0070423
        k(   38) = (   0.2400000   0.5000000   0.0000000), wk =   0.0070423
        k(   39) = (   0.2600000   0.5000000   0.0000000), wk =   0.0070423
        k(   40) = (   0.2800000   0.5000000   0.0000000), wk =   0.0070423
        k(   41) = (   0.3000000   0.5000000   0.0000000), wk =   0.0070423
        k(   42) = (   0.3200000   0.5000000   0.0000000), wk =   0.0070423
        k(   43) = (   0.3400000   0.5000000   0.0000000), wk =   0.0070423
        k(   44) = (   0.3600000   0.5000000   0.0000000), wk =   0.0070423
        k(   45) = (   0.3800000   0.5000000   0.0000000), wk =   0.0070423
        k(   46) = (   0.4000000   0.5000000   0.0000000), wk =   0.0070423
        k(   47) = (   0.4200000   0.5000000   0.0000000), wk =   0.0070423
        k(   48) = (   0.4400000   0.5000000   0.0000000), wk =   0.0070423
        k(   49) = (   0.4600000   0.5000000   0.0000000), wk =   0.0070423
        k(   50) = (   0.4800000   0.5000000   0.0000000), wk =   0.0070423
        k(   51) = (   0.5000000   0.5000000   0.0000000), wk =   0.0070423
        k(   52) = (   0.4857143   0.4857143   0.0000000), wk =   0.0070423
        k(   53) = (   0.4714286   0.4714286   0.0000000), wk =   0.0070423
        k(   54) = (   0.4571429   0.4571429   0.0000000), wk =   0.0070423
        k(   55) = (   0.4428571   0.4428571   0.0000000), wk =   0.0070423
        k(   56) = (   0.4285714   0.4285714   0.0000000), wk =   0.0070423
        k(   57) = (   0.4142857   0.4142857   0.0000000), wk =   0.0070423
        k(   58) = (   0.4000000   0.4000000   0.0000000), wk =   0.0070423
        k(   59) = (   0.3857143   0.3857143   0.0000000), wk =   0.0070423
        k(   60) = (   0.3714286   0.3714286   0.0000000), wk =   0.0070423
        k(   61) = (   0.3571429   0.3571429   0.0000000), wk =   0.0070423
        k(   62) = (   0.3428571   0.3428571   0.0000000), wk =   0.0070423
        k(   63) = (   0.3285714   0.3285714   0.0000000), wk =   0.0070423
        k(   64) = (   0.3142857   0.3142857   0.0000000), wk =   0.0070423
        k(   65) = (   0.3000000   0.3000000   0.0000000), wk =   0.0070423
        k(   66) = (   0.2857143   0.2857143   0.0000000), wk =   0.0070423
        k(   67) = (   0.2714286   0.2714286   0.0000000), wk =   0.0070423
        k(   68) = (   0.2571429   0.2571429   0.0000000), wk =   0.0070423
        k(   69) = (   0.2428571   0.2428571   0.0000000), wk =   0.0070423
        k(   70) = (   0.2285714   0.2285714   0.0000000), wk =   0.0070423
        k(   71) = (   0.2142857   0.2142857   0.0000000), wk =   0.0070423
        k(   72) = (   0.2000000   0.2000000   0.0000000), wk =   0.0070423
        k(   73) = (   0.1857143   0.1857143   0.0000000), wk =   0.0070423
        k(   74) = (   0.1714286   0.1714286   0.0000000), wk =   0.0070423
        k(   75) = (   0.1571429   0.1571429   0.0000000), wk =   0.0070423
        k(   76) = (   0.1428571   0.1428571   0.0000000), wk =   0.0070423
        k(   77) = (   0.1285714   0.1285714   0.0000000), wk =   0.0070423
        k(   78) = (   0.1142857   0.1142857   0.0000000), wk =   0.0070423
        k(   79) = (   0.1000000   0.1000000   0.0000000), wk =   0.0070423
        k(   80) = (   0.0857143   0.0857143   0.0000000), wk =   0.0070423
        k(   81) = (   0.0714286   0.0714286   0.0000000), wk =   0.0070423
        k(   82) = (   0.0571429   0.0571429   0.0000000), wk =   0.0070423
        k(   83) = (   0.0428571   0.0428571   0.0000000), wk =   0.0070423
        k(   84) = (   0.0285714   0.0285714   0.0000000), wk =   0.0070423
        k(   85) = (   0.0142857   0.0142857   0.0000000), wk =   0.0070423
        k(   86) = (   0.0000000   0.0000000   0.0000000), wk =   0.0070423
        k(   87) = (   0.0000000   0.0000000   0.0135135), wk =   0.0070423
        k(   88) = (   0.0000000   0.0000000   0.0270270), wk =   0.0070423
        k(   89) = (   0.0000000   0.0000000   0.0405405), wk =   0.0070423
        k(   90) = (   0.0000000   0.0000000   0.0540541), wk =   0.0070423
        k(   91) = (   0.0000000   0.0000000   0.0675676), wk =   0.0070423
        k(   92) = (   0.0000000   0.0000000   0.0810811), wk =   0.0070423
        k(   93) = (   0.0000000   0.0000000   0.0945946), wk =   0.0070423
        k(   94) = (   0.0000000   0.0000000   0.1081081), wk =   0.0070423
        k(   95) = (   0.0000000   0.0000000   0.1216216), wk =   0.0070423
        k(   96) = (   0.0000000   0.0000000   0.1351351), wk =   0.0070423
        k(   97) = (   0.0000000   0.0000000   0.1486486), wk =   0.0070423
        k(   98) = (   0.0000000   0.0000000   0.1621622), wk =   0.0070423
        k(   99) = (   0.0000000   0.0000000   0.1756757), wk =   0.0070423
        k(  100) = (   0.0000000   0.0000000   0.1891892), wk =   0.0070423
        k(  101) = (   0.0000000   0.0000000   0.2027027), wk =   0.0070423
        k(  102) = (   0.0000000   0.0000000   0.2162162), wk =   0.0070423
        k(  103) = (   0.0000000   0.0000000   0.2297297), wk =   0.0070423
        k(  104) = (   0.0000000   0.0000000   0.2432432), wk =   0.0070423
        k(  105) = (   0.0000000   0.0000000   0.2567568), wk =   0.0070423
        k(  106) = (   0.0000000   0.0000000   0.2702703), wk =   0.0070423
        k(  107) = (   0.0000000   0.0000000   0.2837838), wk =   0.0070423
        k(  108) = (   0.0000000   0.0000000   0.2972973), wk =   0.0070423
        k(  109) = (   0.0000000   0.0000000   0.3108108), wk =   0.0070423
        k(  110) = (   0.0000000   0.0000000   0.3243243), wk =   0.0070423
        k(  111) = (   0.0000000   0.0000000   0.3378378), wk =   0.0070423
        k(  112) = (   0.0000000   0.0000000   0.3513514), wk =   0.0070423
        k(  113) = (   0.0000000   0.0000000   0.3648649), wk =   0.0070423
        k(  114) = (   0.0000000   0.0000000   0.3783784), wk =   0.0070423
        k(  115) = (   0.0000000   0.0000000   0.3918919), wk =   0.0070423
        k(  116) = (   0.0000000   0.0000000   0.4054054), wk =   0.0070423
        k(  117) = (   0.0000000   0.0000000   0.4189189), wk =   0.0070423
        k(  118) = (   0.0000000   0.0000000   0.4324324), wk =   0.0070423
        k(  119) = (   0.0000000   0.0000000   0.4459459), wk =   0.0070423
        k(  120) = (   0.0000000   0.0000000   0.4594595), wk =   0.0070423
        k(  121) = (   0.0000000   0.0000000   0.4729730), wk =   0.0070423
        k(  122) = (   0.0000000   0.0000000   0.4864865), wk =   0.0070423
        k(  123) = (   0.0000000   0.0000000   0.5000000), wk =   0.0070423
        k(  124) = (   0.0000000   0.0200000   0.5000000), wk =   0.0070423
        k(  125) = (   0.0000000   0.0400000   0.5000000), wk =   0.0070423
        k(  126) = (   0.0000000   0.0600000   0.5000000), wk =   0.0070423
        k(  127) = (   0.0000000   0.0800000   0.5000000), wk =   0.0070423
        k(  128) = (   0.0000000   0.1000000   0.5000000), wk =   0.0070423
        k(  129) = (   0.0000000   0.1200000   0.5000000), wk =   0.0070423
        k(  130) = (   0.0000000   0.1400000   0.5000000), wk =   0.0070423
        k(  131) = (   0.0000000   0.1600000   0.5000000), wk =   0.0070423
        k(  132) = (   0.0000000   0.1800000   0.5000000), wk =   0.0070423
        k(  133) = (   0.0000000   0.2000000   0.5000000), wk =   0.0070423
        k(  134) = (   0.0000000   0.2200000   0.5000000), wk =   0.0070423
        k(  135) = (   0.0000000   0.2400000   0.5000000), wk =   0.0070423
        k(  136) = (   0.0000000   0.2600000   0.5000000), wk =   0.0070423
        k(  137) = (   0.0000000   0.2800000   0.5000000), wk =   0.0070423
        k(  138) = (   0.0000000   0.3000000   0.5000000), wk =   0.0070423
        k(  139) = (   0.0000000   0.3200000   0.5000000), wk =   0.0070423
        k(  140) = (   0.0000000   0.3400000   0.5000000), wk =   0.0070423
        k(  141) = (   0.0000000   0.3600000   0.5000000), wk =   0.0070423
        k(  142) = (   0.0000000   0.3800000   0.5000000), wk =   0.0070423
        k(  143) = (   0.0000000   0.4000000   0.5000000), wk =   0.0070423
        k(  144) = (   0.0000000   0.4200000   0.5000000), wk =   0.0070423
        k(  145) = (   0.0000000   0.4400000   0.5000000), wk =   0.0070423
        k(  146) = (   0.0000000   0.4600000   0.5000000), wk =   0.0070423
        k(  147) = (   0.0000000   0.4800000   0.5000000), wk =   0.0070423
        k(  148) = (   0.0000000   0.5000000   0.5000000), wk =   0.0070423
        k(  149) = (   0.0200000   0.5000000   0.5000000), wk =   0.0070423
        k(  150) = (   0.0400000   0.5000000   0.5000000), wk =   0.0070423
        k(  151) = (   0.0600000   0.5000000   0.5000000), wk =   0.0070423
        k(  152) = (   0.0800000   0.5000000   0.5000000), wk =   0.0070423
        k(  153) = (   0.1000000   0.5000000   0.5000000), wk =   0.0070423
        k(  154) = (   0.1200000   0.5000000   0.5000000), wk =   0.0070423
        k(  155) = (   0.1400000   0.5000000   0.5000000), wk =   0.0070423
        k(  156) = (   0.1600000   0.5000000   0.5000000), wk =   0.0070423
        k(  157) = (   0.1800000   0.5000000   0.5000000), wk =   0.0070423
        k(  158) = (   0.2000000   0.5000000   0.5000000), wk =   0.0070423
        k(  159) = (   0.2200000   0.5000000   0.5000000), wk =   0.0070423
        k(  160) = (   0.2400000   0.5000000   0.5000000), wk =   0.0070423
        k(  161) = (   0.2600000   0.5000000   0.5000000), wk =   0.0070423
        k(  162) = (   0.2800000   0.5000000   0.5000000), wk =   0.0070423
        k(  163) = (   0.3000000   0.5000000   0.5000000), wk =   0.0070423
        k(  164) = (   0.3200000   0.5000000   0.5000000), wk =   0.0070423
        k(  165) = (   0.3400000   0.5000000   0.5000000), wk =   0.0070423
        k(  166) = (   0.3600000   0.5000000   0.5000000), wk =   0.0070423
        k(  167) = (   0.3800000   0.5000000   0.5000000), wk =   0.0070423
        k(  168) = (   0.4000000   0.5000000   0.5000000), wk =   0.0070423
        k(  169) = (   0.4200000   0.5000000   0.5000000), wk =   0.0070423
        k(  170) = (   0.4400000   0.5000000   0.5000000), wk =   0.0070423
        k(  171) = (   0.4600000   0.5000000   0.5000000), wk =   0.0070423
        k(  172) = (   0.4800000   0.5000000   0.5000000), wk =   0.0070423
        k(  173) = (   0.5000000   0.5000000   0.5000000), wk =   0.0070423
        k(  174) = (   0.4857143   0.4857143   0.5000000), wk =   0.0070423
        k(  175) = (   0.4714286   0.4714286   0.5000000), wk =   0.0070423
        k(  176) = (   0.4571429   0.4571429   0.5000000), wk =   0.0070423
        k(  177) = (   0.4428571   0.4428571   0.5000000), wk =   0.0070423
        k(  178) = (   0.4285714   0.4285714   0.5000000), wk =   0.0070423
        k(  179) = (   0.4142857   0.4142857   0.5000000), wk =   0.0070423
        k(  180) = (   0.4000000   0.4000000   0.5000000), wk =   0.0070423
        k(  181) = (   0.3857143   0.3857143   0.5000000), wk =   0.0070423
        k(  182) = (   0.3714286   0.3714286   0.5000000), wk =   0.0070423
        k(  183) = (   0.3571429   0.3571429   0.5000000), wk =   0.0070423
        k(  184) = (   0.3428571   0.3428571   0.5000000), wk =   0.0070423
        k(  185) = (   0.3285714   0.3285714   0.5000000), wk =   0.0070423
        k(  186) = (   0.3142857   0.3142857   0.5000000), wk =   0.0070423
        k(  187) = (   0.3000000   0.3000000   0.5000000), wk =   0.0070423
        k(  188) = (   0.2857143   0.2857143   0.5000000), wk =   0.0070423
        k(  189) = (   0.2714286   0.2714286   0.5000000), wk =   0.0070423
        k(  190) = (   0.2571429   0.2571429   0.5000000), wk =   0.0070423
        k(  191) = (   0.2428571   0.2428571   0.5000000), wk =   0.0070423
        k(  192) = (   0.2285714   0.2285714   0.5000000), wk =   0.0070423
        k(  193) = (   0.2142857   0.2142857   0.5000000), wk =   0.0070423
        k(  194) = (   0.2000000   0.2000000   0.5000000), wk =   0.0070423
        k(  195) = (   0.1857143   0.1857143   0.5000000), wk =   0.0070423
        k(  196) = (   0.1714286   0.1714286   0.5000000), wk =   0.0070423
        k(  197) = (   0.1571429   0.1571429   0.5000000), wk =   0.0070423
        k(  198) = (   0.1428571   0.1428571   0.5000000), wk =   0.0070423
        k(  199) = (   0.1285714   0.1285714   0.5000000), wk =   0.0070423
        k(  200) = (   0.1142857   0.1142857   0.5000000), wk =   0.0070423
        k(  201) = (   0.1000000   0.1000000   0.5000000), wk =   0.0070423
        k(  202) = (   0.0857143   0.0857143   0.5000000), wk =   0.0070423
        k(  203) = (   0.0714286   0.0714286   0.5000000), wk =   0.0070423
        k(  204) = (   0.0571429   0.0571429   0.5000000), wk =   0.0070423
        k(  205) = (   0.0428571   0.0428571   0.5000000), wk =   0.0070423
        k(  206) = (   0.0285714   0.0285714   0.5000000), wk =   0.0070423
        k(  207) = (   0.0142857   0.0142857   0.5000000), wk =   0.0070423
        k(  208) = (   0.0000000   0.0000000   0.5000000), wk =   0.0070423
        k(  209) = (   0.0000000   0.5000000   0.0000000), wk =   0.0070423
        k(  210) = (   0.0000000   0.5000000   0.0135135), wk =   0.0070423
        k(  211) = (   0.0000000   0.5000000   0.0270270), wk =   0.0070423
        k(  212) = (   0.0000000   0.5000000   0.0405405), wk =   0.0070423
        k(  213) = (   0.0000000   0.5000000   0.0540541), wk =   0.0070423
        k(  214) = (   0.0000000   0.5000000   0.0675676), wk =   0.0070423
        k(  215) = (   0.0000000   0.5000000   0.0810811), wk =   0.0070423
        k(  216) = (   0.0000000   0.5000000   0.0945946), wk =   0.0070423
        k(  217) = (   0.0000000   0.5000000   0.1081081), wk =   0.0070423
        k(  218) = (   0.0000000   0.5000000   0.1216216), wk =   0.0070423
        k(  219) = (   0.0000000   0.5000000   0.1351351), wk =   0.0070423
        k(  220) = (   0.0000000   0.5000000   0.1486486), wk =   0.0070423
        k(  221) = (   0.0000000   0.5000000   0.1621622), wk =   0.0070423
        k(  222) = (   0.0000000   0.5000000   0.1756757), wk =   0.0070423
        k(  223) = (   0.0000000   0.5000000   0.1891892), wk =   0.0070423
        k(  224) = (   0.0000000   0.5000000   0.2027027), wk =   0.0070423
        k(  225) = (   0.0000000   0.5000000   0.2162162), wk =   0.0070423
        k(  226) = (   0.0000000   0.5000000   0.2297297), wk =   0.0070423
        k(  227) = (   0.0000000   0.5000000   0.2432432), wk =   0.0070423
        k(  228) = (   0.0000000   0.5000000   0.2567568), wk =   0.0070423
        k(  229) = (   0.0000000   0.5000000   0.2702703), wk =   0.0070423
        k(  230) = (   0.0000000   0.5000000   0.2837838), wk =   0.0070423
        k(  231) = (   0.0000000   0.5000000   0.2972973), wk =   0.0070423
        k(  232) = (   0.0000000   0.5000000   0.3108108), wk =   0.0070423
        k(  233) = (   0.0000000   0.5000000   0.3243243), wk =   0.0070423
        k(  234) = (   0.0000000   0.5000000   0.3378378), wk =   0.0070423
        k(  235) = (   0.0000000   0.5000000   0.3513514), wk =   0.0070423
        k(  236) = (   0.0000000   0.5000000   0.3648649), wk =   0.0070423
        k(  237) = (   0.0000000   0.5000000   0.3783784), wk =   0.0070423
        k(  238) = (   0.0000000   0.5000000   0.3918919), wk =   0.0070423
        k(  239) = (   0.0000000   0.5000000   0.4054054), wk =   0.0070423
        k(  240) = (   0.0000000   0.5000000   0.4189189), wk =   0.0070423
        k(  241) = (   0.0000000   0.5000000   0.4324324), wk =   0.0070423
        k(  242) = (   0.0000000   0.5000000   0.4459459), wk =   0.0070423
        k(  243) = (   0.0000000   0.5000000   0.4594595), wk =   0.0070423
        k(  244) = (   0.0000000   0.5000000   0.4729730), wk =   0.0070423
        k(  245) = (   0.0000000   0.5000000   0.4864865), wk =   0.0070423
        k(  246) = (   0.0000000   0.5000000   0.5000000), wk =   0.0070423
        k(  247) = (   0.5000000   0.5000000   0.0000000), wk =   0.0070423
        k(  248) = (   0.5000000   0.5000000   0.0135135), wk =   0.0070423
        k(  249) = (   0.5000000   0.5000000   0.0270270), wk =   0.0070423
        k(  250) = (   0.5000000   0.5000000   0.0405405), wk =   0.0070423
        k(  251) = (   0.5000000   0.5000000   0.0540541), wk =   0.0070423
        k(  252) = (   0.5000000   0.5000000   0.0675676), wk =   0.0070423
        k(  253) = (   0.5000000   0.5000000   0.0810811), wk =   0.0070423
        k(  254) = (   0.5000000   0.5000000   0.0945946), wk =   0.0070423
        k(  255) = (   0.5000000   0.5000000   0.1081081), wk =   0.0070423
        k(  256) = (   0.5000000   0.5000000   0.1216216), wk =   0.0070423
        k(  257) = (   0.5000000   0.5000000   0.1351351), wk =   0.0070423
        k(  258) = (   0.5000000   0.5000000   0.1486486), wk =   0.0070423
        k(  259) = (   0.5000000   0.5000000   0.1621622), wk =   0.0070423
        k(  260) = (   0.5000000   0.5000000   0.1756757), wk =   0.0070423
        k(  261) = (   0.5000000   0.5000000   0.1891892), wk =   0.0070423
        k(  262) = (   0.5000000   0.5000000   0.2027027), wk =   0.0070423
        k(  263) = (   0.5000000   0.5000000   0.2162162), wk =   0.0070423
        k(  264) = (   0.5000000   0.5000000   0.2297297), wk =   0.0070423
        k(  265) = (   0.5000000   0.5000000   0.2432432), wk =   0.0070423
        k(  266) = (   0.5000000   0.5000000   0.2567568), wk =   0.0070423
        k(  267) = (   0.5000000   0.5000000   0.2702703), wk =   0.0070423
        k(  268) = (   0.5000000   0.5000000   0.2837838), wk =   0.0070423
        k(  269) = (   0.5000000   0.5000000   0.2972973), wk =   0.0070423
        k(  270) = (   0.5000000   0.5000000   0.3108108), wk =   0.0070423
        k(  271) = (   0.5000000   0.5000000   0.3243243), wk =   0.0070423
        k(  272) = (   0.5000000   0.5000000   0.3378378), wk =   0.0070423
        k(  273) = (   0.5000000   0.5000000   0.3513514), wk =   0.0070423
        k(  274) = (   0.5000000   0.5000000   0.3648649), wk =   0.0070423
        k(  275) = (   0.5000000   0.5000000   0.3783784), wk =   0.0070423
        k(  276) = (   0.5000000   0.5000000   0.3918919), wk =   0.0070423
        k(  277) = (   0.5000000   0.5000000   0.4054054), wk =   0.0070423
        k(  278) = (   0.5000000   0.5000000   0.4189189), wk =   0.0070423
        k(  279) = (   0.5000000   0.5000000   0.4324324), wk =   0.0070423
        k(  280) = (   0.5000000   0.5000000   0.4459459), wk =   0.0070423
        k(  281) = (   0.5000000   0.5000000   0.4594595), wk =   0.0070423
        k(  282) = (   0.5000000   0.5000000   0.4729730), wk =   0.0070423
        k(  283) = (   0.5000000   0.5000000   0.4864865), wk =   0.0070423
        k(  284) = (   0.5000000   0.5000000   0.5000000), wk =   0.0070423

     Dense  grid:    44945 G-vectors     FFT dimensions: (  54,  54,  36)

     Dynamical RAM for                 wfc:       1.29 MB

     Dynamical RAM for     wfc (w. buffer):       1.29 MB

     Dynamical RAM for           str. fact:       0.69 MB

     Dynamical RAM for           local pot:       0.00 MB

     Dynamical RAM for          nlocal pot:       3.77 MB

     Dynamical RAM for                qrad:       4.04 MB

     Dynamical RAM for          rho,v,vnew:       2.23 MB

     Dynamical RAM for           G-vectors:       1.46 MB

     Dynamical RAM for          h,s,v(r/c):       0.66 MB

     Dynamical RAM for          <psi|beta>:       0.04 MB

     Dynamical RAM for                 psi:       5.14 MB

     Dynamical RAM for                hpsi:       5.14 MB

     Dynamical RAM for      wfcinit/wfcrot:       2.94 MB

     Estimated static dynamical RAM per process >      16.50 MB

     Estimated max dynamical RAM per process >      27.49 MB

     Estimated total dynamical RAM >      54.98 MB

     Check: negative/imaginary core charge=   -0.000002    0.000000

     The potential is recalculated from file :
     ./SnO2.save/charge-density.dat

     Starting wfc are   34 randomized atomic wfcs

     Band Structure Calculation
     Davidson diagonalization with overlap

     Computing kpt #:     1
     total cpu time spent up to now is        3.8 secs

     Computing kpt #:     2
     total cpu time spent up to now is        6.7 secs

     Computing kpt #:     3
     total cpu time spent up to now is        9.6 secs

     Computing kpt #:     4
     total cpu time spent up to now is       12.6 secs

     Computing kpt #:     5
     total cpu time spent up to now is       15.7 secs

     Computing kpt #:     6
     total cpu time spent up to now is       18.6 secs

     Computing kpt #:     7
     total cpu time spent up to now is       21.5 secs

     Computing kpt #:     8
     total cpu time spent up to now is       24.4 secs

     Computing kpt #:     9
     total cpu time spent up to now is       27.3 secs

     Computing kpt #:    10
     total cpu time spent up to now is       30.2 secs

     Computing kpt #:    11
     total cpu time spent up to now is       33.3 secs

     Computing kpt #:    12
     total cpu time spent up to now is       36.3 secs

     Computing kpt #:    13
     total cpu time spent up to now is       39.2 secs

     Computing kpt #:    14
     total cpu time spent up to now is       42.1 secs

     Computing kpt #:    15
     total cpu time spent up to now is       45.2 secs

     Computing kpt #:    16
     total cpu time spent up to now is       48.2 secs

     Computing kpt #:    17
     total cpu time spent up to now is       51.2 secs

     Computing kpt #:    18
     total cpu time spent up to now is       54.3 secs

     Computing kpt #:    19
     total cpu time spent up to now is       57.3 secs

     Computing kpt #:    20
     total cpu time spent up to now is       60.5 secs

     Computing kpt #:    21
     total cpu time spent up to now is       63.5 secs

     Computing kpt #:    22
     total cpu time spent up to now is       66.5 secs

     Computing kpt #:    23
     total cpu time spent up to now is       69.6 secs

     Computing kpt #:    24
     total cpu time spent up to now is       72.6 secs

     Computing kpt #:    25
     total cpu time spent up to now is       75.5 secs

     Computing kpt #:    26
     total cpu time spent up to now is       78.5 secs

     Computing kpt #:    27
     total cpu time spent up to now is       81.5 secs

     Computing kpt #:    28
     total cpu time spent up to now is       84.5 secs

     Computing kpt #:    29
     total cpu time spent up to now is       87.4 secs

     Computing kpt #:    30
     total cpu time spent up to now is       90.4 secs

     Computing kpt #:    31
     total cpu time spent up to now is       93.3 secs

     Computing kpt #:    32
     total cpu time spent up to now is       96.4 secs

     Computing kpt #:    33
     total cpu time spent up to now is       99.5 secs

     Computing kpt #:    34
     total cpu time spent up to now is      102.5 secs

     Computing kpt #:    35
     total cpu time spent up to now is      105.4 secs

     Computing kpt #:    36
     total cpu time spent up to now is      108.5 secs

     Computing kpt #:    37
     total cpu time spent up to now is      111.4 secs

     Computing kpt #:    38
     total cpu time spent up to now is      114.4 secs

     Computing kpt #:    39
     total cpu time spent up to now is      117.4 secs

     Computing kpt #:    40
     total cpu time spent up to now is      120.3 secs

     Computing kpt #:    41
     total cpu time spent up to now is      123.2 secs

     Computing kpt #:    42
     total cpu time spent up to now is      126.1 secs

     Computing kpt #:    43
     total cpu time spent up to now is      129.1 secs

     Computing kpt #:    44
     total cpu time spent up to now is      132.2 secs

     Computing kpt #:    45
     total cpu time spent up to now is      135.1 secs

     Computing kpt #:    46
     total cpu time spent up to now is      138.9 secs

     Computing kpt #:    47
     total cpu time spent up to now is      141.8 secs

     Computing kpt #:    48
     total cpu time spent up to now is      144.7 secs

     Computing kpt #:    49
     total cpu time spent up to now is      147.6 secs

     Computing kpt #:    50
     total cpu time spent up to now is      150.5 secs

     Computing kpt #:    51
     total cpu time spent up to now is      153.5 secs

     Computing kpt #:    52
     total cpu time spent up to now is      156.5 secs

     Computing kpt #:    53
     total cpu time spent up to now is      159.4 secs

     Computing kpt #:    54
     total cpu time spent up to now is      162.4 secs

     Computing kpt #:    55
     total cpu time spent up to now is      165.3 secs

     Computing kpt #:    56
     total cpu time spent up to now is      168.2 secs

     Computing kpt #:    57
     total cpu time spent up to now is      171.3 secs

     Computing kpt #:    58
     total cpu time spent up to now is      174.2 secs

     Computing kpt #:    59
     total cpu time spent up to now is      177.1 secs

     Computing kpt #:    60
     total cpu time spent up to now is      180.1 secs

     Computing kpt #:    61
     total cpu time spent up to now is      183.0 secs

     Computing kpt #:    62
     total cpu time spent up to now is      185.9 secs

     Computing kpt #:    63
     total cpu time spent up to now is      189.2 secs

     Computing kpt #:    64
     total cpu time spent up to now is      192.1 secs

     Computing kpt #:    65
     total cpu time spent up to now is      195.0 secs

     Computing kpt #:    66
     total cpu time spent up to now is      198.0 secs

     Computing kpt #:    67
     total cpu time spent up to now is      201.1 secs

     Computing kpt #:    68
     total cpu time spent up to now is      204.1 secs

     Computing kpt #:    69
     total cpu time spent up to now is      207.0 secs

     Computing kpt #:    70
     total cpu time spent up to now is      210.0 secs

     Computing kpt #:    71
     total cpu time spent up to now is      213.1 secs

     Computing kpt #:    72
     total cpu time spent up to now is      216.0 secs

     Computing kpt #:    73
     total cpu time spent up to now is      218.9 secs

     Computing kpt #:    74
     total cpu time spent up to now is      222.0 secs

     Computing kpt #:    75
     total cpu time spent up to now is      224.9 secs

     Computing kpt #:    76
     total cpu time spent up to now is      227.9 secs

     Computing kpt #:    77
     total cpu time spent up to now is      230.8 secs

     Computing kpt #:    78
     total cpu time spent up to now is      233.7 secs

     Computing kpt #:    79
     total cpu time spent up to now is      236.6 secs

     Computing kpt #:    80
     total cpu time spent up to now is      239.5 secs

     Computing kpt #:    81
     total cpu time spent up to now is      242.5 secs

     Computing kpt #:    82
     total cpu time spent up to now is      245.4 secs

     Computing kpt #:    83
     total cpu time spent up to now is      248.4 secs

     Computing kpt #:    84
     total cpu time spent up to now is      251.4 secs

     Computing kpt #:    85
     total cpu time spent up to now is      254.2 secs

     Computing kpt #:    86
     total cpu time spent up to now is      257.2 secs

     Computing kpt #:    87
     total cpu time spent up to now is      260.1 secs

     Computing kpt #:    88
     total cpu time spent up to now is      263.1 secs

     Computing kpt #:    89
     total cpu time spent up to now is      266.1 secs

     Computing kpt #:    90
     total cpu time spent up to now is      268.7 secs

     Computing kpt #:    91
     total cpu time spent up to now is      271.6 secs

     Computing kpt #:    92
     total cpu time spent up to now is      274.7 secs

     Computing kpt #:    93
     total cpu time spent up to now is      277.6 secs

     Computing kpt #:    94
     total cpu time spent up to now is      280.5 secs

     Computing kpt #:    95
     total cpu time spent up to now is      283.4 secs

     Computing kpt #:    96
     total cpu time spent up to now is      286.4 secs

     Computing kpt #:    97
     total cpu time spent up to now is      289.4 secs

     Computing kpt #:    98
     total cpu time spent up to now is      292.4 secs

     Computing kpt #:    99
     total cpu time spent up to now is      295.3 secs

     Computing kpt #:   100
     total cpu time spent up to now is      298.3 secs

     Computing kpt #:   101
     total cpu time spent up to now is      301.2 secs

     Computing kpt #:   102
     total cpu time spent up to now is      304.3 secs

     Computing kpt #:   103
     total cpu time spent up to now is      307.3 secs

     Computing kpt #:   104
     total cpu time spent up to now is      310.4 secs

     Computing kpt #:   105
     total cpu time spent up to now is      313.7 secs

     Computing kpt #:   106

 %%%%%%%%%%%%%%%%%%%%%%%%%%%%%%%%%%%%%%%%%%%%%%%%%%%%%%%%%%%%%%%%%%%%%%%%%%%%%%
     Error in routine cdiaghg (199):
     S matrix not positive definite
 %%%%%%%%%%%%%%%%%%%%%%%%%%%%%%%%%%%%%%%%%%%%%%%%%%%%%%%%%%%%%%%%%%%%%%%%%%%%%%

     stopping ...
