
     Program PWSCF v.6.2.2 starts on 23May2018 at 15:57:26 

     This program is part of the open-source Quantum ESPRESSO suite
     for quantum simulation of materials; please cite
         "P. Giannozzi et al., J. Phys.:Condens. Matter 21 395502 (2009);
         "P. Giannozzi et al., J. Phys.:Condens. Matter 29 465901 (2017);
          URL http://www.quantum-espresso.org", 
     in publications or presentations arising from this work. More details at
     http://www.quantum-espresso.org/quote

     Parallel version (MPI), running on     2 processors

     MPI processes distributed on     1 nodes
     R & G space division:  proc/nbgrp/npool/nimage =       2
     Reading input from el-bands80.in
Warning: card &IONS ignored
Warning: card / ignored
Warning: card &CELL ignored
Warning: card / ignored

     Current dimensions of program PWSCF are:
     Max number of different atomic species (ntypx) = 10
     Max number of k-points (npk) =  40000
     Max angular momentum in pseudopotentials (lmaxx) =  3

     Atomic positions and unit cell read from directory:
     ./SnO2.save/
 

     Subspace diagonalization in iterative solution of the eigenvalue problem:
     a serial algorithm will be used

 
     Parallelization info
     --------------------
     sticks:   dense  smooth     PW     G-vecs:    dense   smooth      PW
     Min        1000    1000    296                22472    22472    3577
     Max        1001    1001    297                22473    22473    3578
     Sum        2001    2001    593                44945    44945    7155
 


     bravais-lattice index     =            6
     lattice parameter (alat)  =       9.1370  a.u.
     unit-cell volume          =     512.3005 (a.u.)^3
     number of atoms/cell      =            6
     number of atomic types    =            2
     number of electrons       =        52.00
     number of Kohn-Sham states=           28
     kinetic-energy cutoff     =      75.0000  Ry
     charge density cutoff     =     300.0000  Ry
     Exchange-correlation      = PBE ( 1  4  3  4 0 0)

     celldm(1)=   9.137033  celldm(2)=   1.000000  celldm(3)=   0.671598
     celldm(4)=   0.000000  celldm(5)=   0.000000  celldm(6)=   0.000000

     crystal axes: (cart. coord. in units of alat)
               a(1) = (   1.000000   0.000000   0.000000 )  
               a(2) = (   0.000000   1.000000   0.000000 )  
               a(3) = (   0.000000   0.000000   0.671598 )  

     reciprocal axes: (cart. coord. in units 2 pi/alat)
               b(1) = (  1.000000  0.000000  0.000000 )  
               b(2) = (  0.000000  1.000000  0.000000 )  
               b(3) = (  0.000000  0.000000  1.488987 )  


     PseudoPot. # 1 for Sn read from file:
     ../Pseudo_potentials/Sn_PBE.upf
     MD5 check sum: 78e6386ae56e929f0568ae8bf606a80c
     Pseudo is Norm-conserving + core correction, Zval = 14.0
     Generated using ONCVPSP code by D. R. Hamann
     Using radial grid of 1628 points,  6 beta functions with: 
                l(1) =   0
                l(2) =   0
                l(3) =   1
                l(4) =   1
                l(5) =   2
                l(6) =   2

     PseudoPot. # 2 for O  read from file:
     ../Pseudo_potentials/O_PBE.upf
     MD5 check sum: 3e3f909f7470e8921608ab6b1f57bbae
     Pseudo is Norm-conserving + core correction, Zval =  6.0
     Generated using ONCVPSP code by D. R. Hamann
     Using radial grid of  936 points,  5 beta functions with: 
                l(1) =   0
                l(2) =   0
                l(3) =   1
                l(4) =   1
                l(5) =   2

     atomic species   valence    mass     pseudopotential
        Sn            14.00   118.71000     Sn( 1.00)
        O              6.00    15.99900     O ( 1.00)

      4 Sym. Ops. (no inversion) found


                                    s                        frac. trans.

      isym =  1     identity                                     

 cryst.   s( 1) = (     1          0          0      )
                  (     0          1          0      )
                  (     0          0          1      )

 cart.    s( 1) = (  1.0000000  0.0000000  0.0000000 )
                  (  0.0000000  1.0000000  0.0000000 )
                  (  0.0000000  0.0000000  1.0000000 )


      isym =  2     180 deg rotation - cart. axis [1,1,0]        

 cryst.   s( 2) = (     0          1          0      )
                  (     1          0          0      )
                  (     0          0         -1      )

 cart.    s( 2) = (  0.0000000  1.0000000  0.0000000 )
                  (  1.0000000  0.0000000  0.0000000 )
                  (  0.0000000  0.0000000 -1.0000000 )


      isym =  3     inv. 180 deg rotation - cart. axis [0,0,1]   

 cryst.   s( 3) = (     1          0          0      )
                  (     0          1          0      )
                  (     0          0         -1      )

 cart.    s( 3) = (  1.0000000  0.0000000  0.0000000 )
                  (  0.0000000  1.0000000  0.0000000 )
                  (  0.0000000  0.0000000 -1.0000000 )


      isym =  4     inv. 180 deg rotation - cart. axis [1,-1,0]  

 cryst.   s( 4) = (     0          1          0      )
                  (     1          0          0      )
                  (     0          0          1      )

 cart.    s( 4) = (  0.0000000  1.0000000  0.0000000 )
                  (  1.0000000  0.0000000  0.0000000 )
                  (  0.0000000  0.0000000  1.0000000 )


     point group C_2v (mm2) 
     there are  4 classes
     the character table:

       E     C2    s_v   s_v' 
A_1    1.00  1.00  1.00  1.00
A_2    1.00  1.00 -1.00 -1.00
B_1    1.00 -1.00  1.00 -1.00
B_2    1.00 -1.00 -1.00  1.00

     the symmetry operations in each class and the name of the first element:

     E        1
          identity                                               
     C2       2
          180 deg rotation - cart. axis [1,1,0]                  
     s_v      3
          inv. 180 deg rotation - cart. axis [0,0,1]             
     s_v'     4
          inv. 180 deg rotation - cart. axis [1,-1,0]            

   Cartesian axes

     site n.     atom                  positions (alat units)
         1           Sn  tau(   1) = (  -0.0003320  -0.0003320   0.0000000  )
         2           Sn  tau(   2) = (   0.4996675   0.4996675   0.3357989  )
         3           O   tau(   3) = (   0.8063692   0.1929618   0.3357989  )
         4           O   tau(   4) = (   0.1929618   0.8063692   0.3357989  )
         5           O   tau(   5) = (   0.3063705   0.3063705   0.0000000  )
         6           O   tau(   6) = (   0.6929630   0.6929630   0.0000000  )

   Crystallographic axes

     site n.     atom                  positions (cryst. coord.)
         1           Sn  tau(   1) = ( -0.0003320 -0.0003320  0.0000000  )
         2           Sn  tau(   2) = (  0.4996675  0.4996675  0.5000000  )
         3           O   tau(   3) = (  0.8063692  0.1929618  0.5000000  )
         4           O   tau(   4) = (  0.1929618  0.8063692  0.5000000  )
         5           O   tau(   5) = (  0.3063705  0.3063705  0.0000000  )
         6           O   tau(   6) = (  0.6929630  0.6929630  0.0000000  )

     number of k points=   284
                       cart. coord. in units 2pi/alat
        k(    1) = (   0.0000000   0.0000000   0.0000000), wk =   0.0070423
        k(    2) = (   0.0000000   0.0200000   0.0000000), wk =   0.0070423
        k(    3) = (   0.0000000   0.0400000   0.0000000), wk =   0.0070423
        k(    4) = (   0.0000000   0.0600000   0.0000000), wk =   0.0070423
        k(    5) = (   0.0000000   0.0800000   0.0000000), wk =   0.0070423
        k(    6) = (   0.0000000   0.1000000   0.0000000), wk =   0.0070423
        k(    7) = (   0.0000000   0.1200000   0.0000000), wk =   0.0070423
        k(    8) = (   0.0000000   0.1400000   0.0000000), wk =   0.0070423
        k(    9) = (   0.0000000   0.1600000   0.0000000), wk =   0.0070423
        k(   10) = (   0.0000000   0.1800000   0.0000000), wk =   0.0070423
        k(   11) = (   0.0000000   0.2000000   0.0000000), wk =   0.0070423
        k(   12) = (   0.0000000   0.2200000   0.0000000), wk =   0.0070423
        k(   13) = (   0.0000000   0.2400000   0.0000000), wk =   0.0070423
        k(   14) = (   0.0000000   0.2600000   0.0000000), wk =   0.0070423
        k(   15) = (   0.0000000   0.2800000   0.0000000), wk =   0.0070423
        k(   16) = (   0.0000000   0.3000000   0.0000000), wk =   0.0070423
        k(   17) = (   0.0000000   0.3200000   0.0000000), wk =   0.0070423
        k(   18) = (   0.0000000   0.3400000   0.0000000), wk =   0.0070423
        k(   19) = (   0.0000000   0.3600000   0.0000000), wk =   0.0070423
        k(   20) = (   0.0000000   0.3800000   0.0000000), wk =   0.0070423
        k(   21) = (   0.0000000   0.4000000   0.0000000), wk =   0.0070423
        k(   22) = (   0.0000000   0.4200000   0.0000000), wk =   0.0070423
        k(   23) = (   0.0000000   0.4400000   0.0000000), wk =   0.0070423
        k(   24) = (   0.0000000   0.4600000   0.0000000), wk =   0.0070423
        k(   25) = (   0.0000000   0.4800000   0.0000000), wk =   0.0070423
        k(   26) = (   0.0000000   0.5000000   0.0000000), wk =   0.0070423
        k(   27) = (   0.0200000   0.5000000   0.0000000), wk =   0.0070423
        k(   28) = (   0.0400000   0.5000000   0.0000000), wk =   0.0070423
        k(   29) = (   0.0600000   0.5000000   0.0000000), wk =   0.0070423
        k(   30) = (   0.0800000   0.5000000   0.0000000), wk =   0.0070423
        k(   31) = (   0.1000000   0.5000000   0.0000000), wk =   0.0070423
        k(   32) = (   0.1200000   0.5000000   0.0000000), wk =   0.0070423
        k(   33) = (   0.1400000   0.5000000   0.0000000), wk =   0.0070423
        k(   34) = (   0.1600000   0.5000000   0.0000000), wk =   0.0070423
        k(   35) = (   0.1800000   0.5000000   0.0000000), wk =   0.0070423
        k(   36) = (   0.2000000   0.5000000   0.0000000), wk =   0.0070423
        k(   37) = (   0.2200000   0.5000000   0.0000000), wk =   0.0070423
        k(   38) = (   0.2400000   0.5000000   0.0000000), wk =   0.0070423
        k(   39) = (   0.2600000   0.5000000   0.0000000), wk =   0.0070423
        k(   40) = (   0.2800000   0.5000000   0.0000000), wk =   0.0070423
        k(   41) = (   0.3000000   0.5000000   0.0000000), wk =   0.0070423
        k(   42) = (   0.3200000   0.5000000   0.0000000), wk =   0.0070423
        k(   43) = (   0.3400000   0.5000000   0.0000000), wk =   0.0070423
        k(   44) = (   0.3600000   0.5000000   0.0000000), wk =   0.0070423
        k(   45) = (   0.3800000   0.5000000   0.0000000), wk =   0.0070423
        k(   46) = (   0.4000000   0.5000000   0.0000000), wk =   0.0070423
        k(   47) = (   0.4200000   0.5000000   0.0000000), wk =   0.0070423
        k(   48) = (   0.4400000   0.5000000   0.0000000), wk =   0.0070423
        k(   49) = (   0.4600000   0.5000000   0.0000000), wk =   0.0070423
        k(   50) = (   0.4800000   0.5000000   0.0000000), wk =   0.0070423
        k(   51) = (   0.5000000   0.5000000   0.0000000), wk =   0.0070423
        k(   52) = (   0.4857143   0.4857143   0.0000000), wk =   0.0070423
        k(   53) = (   0.4714286   0.4714286   0.0000000), wk =   0.0070423
        k(   54) = (   0.4571429   0.4571429   0.0000000), wk =   0.0070423
        k(   55) = (   0.4428571   0.4428571   0.0000000), wk =   0.0070423
        k(   56) = (   0.4285714   0.4285714   0.0000000), wk =   0.0070423
        k(   57) = (   0.4142857   0.4142857   0.0000000), wk =   0.0070423
        k(   58) = (   0.4000000   0.4000000   0.0000000), wk =   0.0070423
        k(   59) = (   0.3857143   0.3857143   0.0000000), wk =   0.0070423
        k(   60) = (   0.3714286   0.3714286   0.0000000), wk =   0.0070423
        k(   61) = (   0.3571429   0.3571429   0.0000000), wk =   0.0070423
        k(   62) = (   0.3428571   0.3428571   0.0000000), wk =   0.0070423
        k(   63) = (   0.3285714   0.3285714   0.0000000), wk =   0.0070423
        k(   64) = (   0.3142857   0.3142857   0.0000000), wk =   0.0070423
        k(   65) = (   0.3000000   0.3000000   0.0000000), wk =   0.0070423
        k(   66) = (   0.2857143   0.2857143   0.0000000), wk =   0.0070423
        k(   67) = (   0.2714286   0.2714286   0.0000000), wk =   0.0070423
        k(   68) = (   0.2571429   0.2571429   0.0000000), wk =   0.0070423
        k(   69) = (   0.2428571   0.2428571   0.0000000), wk =   0.0070423
        k(   70) = (   0.2285714   0.2285714   0.0000000), wk =   0.0070423
        k(   71) = (   0.2142857   0.2142857   0.0000000), wk =   0.0070423
        k(   72) = (   0.2000000   0.2000000   0.0000000), wk =   0.0070423
        k(   73) = (   0.1857143   0.1857143   0.0000000), wk =   0.0070423
        k(   74) = (   0.1714286   0.1714286   0.0000000), wk =   0.0070423
        k(   75) = (   0.1571429   0.1571429   0.0000000), wk =   0.0070423
        k(   76) = (   0.1428571   0.1428571   0.0000000), wk =   0.0070423
        k(   77) = (   0.1285714   0.1285714   0.0000000), wk =   0.0070423
        k(   78) = (   0.1142857   0.1142857   0.0000000), wk =   0.0070423
        k(   79) = (   0.1000000   0.1000000   0.0000000), wk =   0.0070423
        k(   80) = (   0.0857143   0.0857143   0.0000000), wk =   0.0070423
        k(   81) = (   0.0714286   0.0714286   0.0000000), wk =   0.0070423
        k(   82) = (   0.0571429   0.0571429   0.0000000), wk =   0.0070423
        k(   83) = (   0.0428571   0.0428571   0.0000000), wk =   0.0070423
        k(   84) = (   0.0285714   0.0285714   0.0000000), wk =   0.0070423
        k(   85) = (   0.0142857   0.0142857   0.0000000), wk =   0.0070423
        k(   86) = (   0.0000000   0.0000000   0.0000000), wk =   0.0070423
        k(   87) = (   0.0000000   0.0000000   0.0201214), wk =   0.0070423
        k(   88) = (   0.0000000   0.0000000   0.0402429), wk =   0.0070423
        k(   89) = (   0.0000000   0.0000000   0.0603643), wk =   0.0070423
        k(   90) = (   0.0000000   0.0000000   0.0804858), wk =   0.0070423
        k(   91) = (   0.0000000   0.0000000   0.1006072), wk =   0.0070423
        k(   92) = (   0.0000000   0.0000000   0.1207286), wk =   0.0070423
        k(   93) = (   0.0000000   0.0000000   0.1408501), wk =   0.0070423
        k(   94) = (   0.0000000   0.0000000   0.1609715), wk =   0.0070423
        k(   95) = (   0.0000000   0.0000000   0.1810930), wk =   0.0070423
        k(   96) = (   0.0000000   0.0000000   0.2012144), wk =   0.0070423
        k(   97) = (   0.0000000   0.0000000   0.2213358), wk =   0.0070423
        k(   98) = (   0.0000000   0.0000000   0.2414573), wk =   0.0070423
        k(   99) = (   0.0000000   0.0000000   0.2615787), wk =   0.0070423
        k(  100) = (   0.0000000   0.0000000   0.2817002), wk =   0.0070423
        k(  101) = (   0.0000000   0.0000000   0.3018216), wk =   0.0070423
        k(  102) = (   0.0000000   0.0000000   0.3219430), wk =   0.0070423
        k(  103) = (   0.0000000   0.0000000   0.3420645), wk =   0.0070423
        k(  104) = (   0.0000000   0.0000000   0.3621859), wk =   0.0070423
        k(  105) = (   0.0000000   0.0000000   0.3823074), wk =   0.0070423
        k(  106) = (   0.0000000   0.0000000   0.4024288), wk =   0.0070423
        k(  107) = (   0.0000000   0.0000000   0.4225502), wk =   0.0070423
        k(  108) = (   0.0000000   0.0000000   0.4426717), wk =   0.0070423
        k(  109) = (   0.0000000   0.0000000   0.4627931), wk =   0.0070423
        k(  110) = (   0.0000000   0.0000000   0.4829146), wk =   0.0070423
        k(  111) = (   0.0000000   0.0000000   0.5030360), wk =   0.0070423
        k(  112) = (   0.0000000   0.0000000   0.5231574), wk =   0.0070423
        k(  113) = (   0.0000000   0.0000000   0.5432789), wk =   0.0070423
        k(  114) = (   0.0000000   0.0000000   0.5634003), wk =   0.0070423
        k(  115) = (   0.0000000   0.0000000   0.5835218), wk =   0.0070423
        k(  116) = (   0.0000000   0.0000000   0.6036432), wk =   0.0070423
        k(  117) = (   0.0000000   0.0000000   0.6237646), wk =   0.0070423
        k(  118) = (   0.0000000   0.0000000   0.6438861), wk =   0.0070423
        k(  119) = (   0.0000000   0.0000000   0.6640075), wk =   0.0070423
        k(  120) = (   0.0000000   0.0000000   0.6841290), wk =   0.0070423
        k(  121) = (   0.0000000   0.0000000   0.7042504), wk =   0.0070423
        k(  122) = (   0.0000000   0.0000000   0.7243718), wk =   0.0070423
        k(  123) = (   0.0000000   0.0000000   0.7444933), wk =   0.0070423
        k(  124) = (   0.0000000   0.0200000   0.7444933), wk =   0.0070423
        k(  125) = (   0.0000000   0.0400000   0.7444933), wk =   0.0070423
        k(  126) = (   0.0000000   0.0600000   0.7444933), wk =   0.0070423
        k(  127) = (   0.0000000   0.0800000   0.7444933), wk =   0.0070423
        k(  128) = (   0.0000000   0.1000000   0.7444933), wk =   0.0070423
        k(  129) = (   0.0000000   0.1200000   0.7444933), wk =   0.0070423
        k(  130) = (   0.0000000   0.1400000   0.7444933), wk =   0.0070423
        k(  131) = (   0.0000000   0.1600000   0.7444933), wk =   0.0070423
        k(  132) = (   0.0000000   0.1800000   0.7444933), wk =   0.0070423
        k(  133) = (   0.0000000   0.2000000   0.7444933), wk =   0.0070423
        k(  134) = (   0.0000000   0.2200000   0.7444933), wk =   0.0070423
        k(  135) = (   0.0000000   0.2400000   0.7444933), wk =   0.0070423
        k(  136) = (   0.0000000   0.2600000   0.7444933), wk =   0.0070423
        k(  137) = (   0.0000000   0.2800000   0.7444933), wk =   0.0070423
        k(  138) = (   0.0000000   0.3000000   0.7444933), wk =   0.0070423
        k(  139) = (   0.0000000   0.3200000   0.7444933), wk =   0.0070423
        k(  140) = (   0.0000000   0.3400000   0.7444933), wk =   0.0070423
        k(  141) = (   0.0000000   0.3600000   0.7444933), wk =   0.0070423
        k(  142) = (   0.0000000   0.3800000   0.7444933), wk =   0.0070423
        k(  143) = (   0.0000000   0.4000000   0.7444933), wk =   0.0070423
        k(  144) = (   0.0000000   0.4200000   0.7444933), wk =   0.0070423
        k(  145) = (   0.0000000   0.4400000   0.7444933), wk =   0.0070423
        k(  146) = (   0.0000000   0.4600000   0.7444933), wk =   0.0070423
        k(  147) = (   0.0000000   0.4800000   0.7444933), wk =   0.0070423
        k(  148) = (   0.0000000   0.5000000   0.7444933), wk =   0.0070423
        k(  149) = (   0.0200000   0.5000000   0.7444933), wk =   0.0070423
        k(  150) = (   0.0400000   0.5000000   0.7444933), wk =   0.0070423
        k(  151) = (   0.0600000   0.5000000   0.7444933), wk =   0.0070423
        k(  152) = (   0.0800000   0.5000000   0.7444933), wk =   0.0070423
        k(  153) = (   0.1000000   0.5000000   0.7444933), wk =   0.0070423
        k(  154) = (   0.1200000   0.5000000   0.7444933), wk =   0.0070423
        k(  155) = (   0.1400000   0.5000000   0.7444933), wk =   0.0070423
        k(  156) = (   0.1600000   0.5000000   0.7444933), wk =   0.0070423
        k(  157) = (   0.1800000   0.5000000   0.7444933), wk =   0.0070423
        k(  158) = (   0.2000000   0.5000000   0.7444933), wk =   0.0070423
        k(  159) = (   0.2200000   0.5000000   0.7444933), wk =   0.0070423
        k(  160) = (   0.2400000   0.5000000   0.7444933), wk =   0.0070423
        k(  161) = (   0.2600000   0.5000000   0.7444933), wk =   0.0070423
        k(  162) = (   0.2800000   0.5000000   0.7444933), wk =   0.0070423
        k(  163) = (   0.3000000   0.5000000   0.7444933), wk =   0.0070423
        k(  164) = (   0.3200000   0.5000000   0.7444933), wk =   0.0070423
        k(  165) = (   0.3400000   0.5000000   0.7444933), wk =   0.0070423
        k(  166) = (   0.3600000   0.5000000   0.7444933), wk =   0.0070423
        k(  167) = (   0.3800000   0.5000000   0.7444933), wk =   0.0070423
        k(  168) = (   0.4000000   0.5000000   0.7444933), wk =   0.0070423
        k(  169) = (   0.4200000   0.5000000   0.7444933), wk =   0.0070423
        k(  170) = (   0.4400000   0.5000000   0.7444933), wk =   0.0070423
        k(  171) = (   0.4600000   0.5000000   0.7444933), wk =   0.0070423
        k(  172) = (   0.4800000   0.5000000   0.7444933), wk =   0.0070423
        k(  173) = (   0.5000000   0.5000000   0.7444933), wk =   0.0070423
        k(  174) = (   0.4857143   0.4857143   0.7444933), wk =   0.0070423
        k(  175) = (   0.4714286   0.4714286   0.7444933), wk =   0.0070423
        k(  176) = (   0.4571429   0.4571429   0.7444933), wk =   0.0070423
        k(  177) = (   0.4428571   0.4428571   0.7444933), wk =   0.0070423
        k(  178) = (   0.4285714   0.4285714   0.7444933), wk =   0.0070423
        k(  179) = (   0.4142857   0.4142857   0.7444933), wk =   0.0070423
        k(  180) = (   0.4000000   0.4000000   0.7444933), wk =   0.0070423
        k(  181) = (   0.3857143   0.3857143   0.7444933), wk =   0.0070423
        k(  182) = (   0.3714286   0.3714286   0.7444933), wk =   0.0070423
        k(  183) = (   0.3571429   0.3571429   0.7444933), wk =   0.0070423
        k(  184) = (   0.3428571   0.3428571   0.7444933), wk =   0.0070423
        k(  185) = (   0.3285714   0.3285714   0.7444933), wk =   0.0070423
        k(  186) = (   0.3142857   0.3142857   0.7444933), wk =   0.0070423
        k(  187) = (   0.3000000   0.3000000   0.7444933), wk =   0.0070423
        k(  188) = (   0.2857143   0.2857143   0.7444933), wk =   0.0070423
        k(  189) = (   0.2714286   0.2714286   0.7444933), wk =   0.0070423
        k(  190) = (   0.2571429   0.2571429   0.7444933), wk =   0.0070423
        k(  191) = (   0.2428571   0.2428571   0.7444933), wk =   0.0070423
        k(  192) = (   0.2285714   0.2285714   0.7444933), wk =   0.0070423
        k(  193) = (   0.2142857   0.2142857   0.7444933), wk =   0.0070423
        k(  194) = (   0.2000000   0.2000000   0.7444933), wk =   0.0070423
        k(  195) = (   0.1857143   0.1857143   0.7444933), wk =   0.0070423
        k(  196) = (   0.1714286   0.1714286   0.7444933), wk =   0.0070423
        k(  197) = (   0.1571429   0.1571429   0.7444933), wk =   0.0070423
        k(  198) = (   0.1428571   0.1428571   0.7444933), wk =   0.0070423
        k(  199) = (   0.1285714   0.1285714   0.7444933), wk =   0.0070423
        k(  200) = (   0.1142857   0.1142857   0.7444933), wk =   0.0070423
        k(  201) = (   0.1000000   0.1000000   0.7444933), wk =   0.0070423
        k(  202) = (   0.0857143   0.0857143   0.7444933), wk =   0.0070423
        k(  203) = (   0.0714286   0.0714286   0.7444933), wk =   0.0070423
        k(  204) = (   0.0571429   0.0571429   0.7444933), wk =   0.0070423
        k(  205) = (   0.0428571   0.0428571   0.7444933), wk =   0.0070423
        k(  206) = (   0.0285714   0.0285714   0.7444933), wk =   0.0070423
        k(  207) = (   0.0142857   0.0142857   0.7444933), wk =   0.0070423
        k(  208) = (   0.0000000   0.0000000   0.7444933), wk =   0.0070423
        k(  209) = (   0.0000000   0.5000000   0.0000000), wk =   0.0070423
        k(  210) = (   0.0000000   0.5000000   0.0201214), wk =   0.0070423
        k(  211) = (   0.0000000   0.5000000   0.0402429), wk =   0.0070423
        k(  212) = (   0.0000000   0.5000000   0.0603643), wk =   0.0070423
        k(  213) = (   0.0000000   0.5000000   0.0804858), wk =   0.0070423
        k(  214) = (   0.0000000   0.5000000   0.1006072), wk =   0.0070423
        k(  215) = (   0.0000000   0.5000000   0.1207286), wk =   0.0070423
        k(  216) = (   0.0000000   0.5000000   0.1408501), wk =   0.0070423
        k(  217) = (   0.0000000   0.5000000   0.1609715), wk =   0.0070423
        k(  218) = (   0.0000000   0.5000000   0.1810930), wk =   0.0070423
        k(  219) = (   0.0000000   0.5000000   0.2012144), wk =   0.0070423
        k(  220) = (   0.0000000   0.5000000   0.2213358), wk =   0.0070423
        k(  221) = (   0.0000000   0.5000000   0.2414573), wk =   0.0070423
        k(  222) = (   0.0000000   0.5000000   0.2615787), wk =   0.0070423
        k(  223) = (   0.0000000   0.5000000   0.2817002), wk =   0.0070423
        k(  224) = (   0.0000000   0.5000000   0.3018216), wk =   0.0070423
        k(  225) = (   0.0000000   0.5000000   0.3219430), wk =   0.0070423
        k(  226) = (   0.0000000   0.5000000   0.3420645), wk =   0.0070423
        k(  227) = (   0.0000000   0.5000000   0.3621859), wk =   0.0070423
        k(  228) = (   0.0000000   0.5000000   0.3823074), wk =   0.0070423
        k(  229) = (   0.0000000   0.5000000   0.4024288), wk =   0.0070423
        k(  230) = (   0.0000000   0.5000000   0.4225502), wk =   0.0070423
        k(  231) = (   0.0000000   0.5000000   0.4426717), wk =   0.0070423
        k(  232) = (   0.0000000   0.5000000   0.4627931), wk =   0.0070423
        k(  233) = (   0.0000000   0.5000000   0.4829146), wk =   0.0070423
        k(  234) = (   0.0000000   0.5000000   0.5030360), wk =   0.0070423
        k(  235) = (   0.0000000   0.5000000   0.5231574), wk =   0.0070423
        k(  236) = (   0.0000000   0.5000000   0.5432789), wk =   0.0070423
        k(  237) = (   0.0000000   0.5000000   0.5634003), wk =   0.0070423
        k(  238) = (   0.0000000   0.5000000   0.5835218), wk =   0.0070423
        k(  239) = (   0.0000000   0.5000000   0.6036432), wk =   0.0070423
        k(  240) = (   0.0000000   0.5000000   0.6237646), wk =   0.0070423
        k(  241) = (   0.0000000   0.5000000   0.6438861), wk =   0.0070423
        k(  242) = (   0.0000000   0.5000000   0.6640075), wk =   0.0070423
        k(  243) = (   0.0000000   0.5000000   0.6841290), wk =   0.0070423
        k(  244) = (   0.0000000   0.5000000   0.7042504), wk =   0.0070423
        k(  245) = (   0.0000000   0.5000000   0.7243718), wk =   0.0070423
        k(  246) = (   0.0000000   0.5000000   0.7444933), wk =   0.0070423
        k(  247) = (   0.5000000   0.5000000   0.0000000), wk =   0.0070423
        k(  248) = (   0.5000000   0.5000000   0.0201214), wk =   0.0070423
        k(  249) = (   0.5000000   0.5000000   0.0402429), wk =   0.0070423
        k(  250) = (   0.5000000   0.5000000   0.0603643), wk =   0.0070423
        k(  251) = (   0.5000000   0.5000000   0.0804858), wk =   0.0070423
        k(  252) = (   0.5000000   0.5000000   0.1006072), wk =   0.0070423
        k(  253) = (   0.5000000   0.5000000   0.1207286), wk =   0.0070423
        k(  254) = (   0.5000000   0.5000000   0.1408501), wk =   0.0070423
        k(  255) = (   0.5000000   0.5000000   0.1609715), wk =   0.0070423
        k(  256) = (   0.5000000   0.5000000   0.1810930), wk =   0.0070423
        k(  257) = (   0.5000000   0.5000000   0.2012144), wk =   0.0070423
        k(  258) = (   0.5000000   0.5000000   0.2213358), wk =   0.0070423
        k(  259) = (   0.5000000   0.5000000   0.2414573), wk =   0.0070423
        k(  260) = (   0.5000000   0.5000000   0.2615787), wk =   0.0070423
        k(  261) = (   0.5000000   0.5000000   0.2817002), wk =   0.0070423
        k(  262) = (   0.5000000   0.5000000   0.3018216), wk =   0.0070423
        k(  263) = (   0.5000000   0.5000000   0.3219430), wk =   0.0070423
        k(  264) = (   0.5000000   0.5000000   0.3420645), wk =   0.0070423
        k(  265) = (   0.5000000   0.5000000   0.3621859), wk =   0.0070423
        k(  266) = (   0.5000000   0.5000000   0.3823074), wk =   0.0070423
        k(  267) = (   0.5000000   0.5000000   0.4024288), wk =   0.0070423
        k(  268) = (   0.5000000   0.5000000   0.4225502), wk =   0.0070423
        k(  269) = (   0.5000000   0.5000000   0.4426717), wk =   0.0070423
        k(  270) = (   0.5000000   0.5000000   0.4627931), wk =   0.0070423
        k(  271) = (   0.5000000   0.5000000   0.4829146), wk =   0.0070423
        k(  272) = (   0.5000000   0.5000000   0.5030360), wk =   0.0070423
        k(  273) = (   0.5000000   0.5000000   0.5231574), wk =   0.0070423
        k(  274) = (   0.5000000   0.5000000   0.5432789), wk =   0.0070423
        k(  275) = (   0.5000000   0.5000000   0.5634003), wk =   0.0070423
        k(  276) = (   0.5000000   0.5000000   0.5835218), wk =   0.0070423
        k(  277) = (   0.5000000   0.5000000   0.6036432), wk =   0.0070423
        k(  278) = (   0.5000000   0.5000000   0.6237646), wk =   0.0070423
        k(  279) = (   0.5000000   0.5000000   0.6438861), wk =   0.0070423
        k(  280) = (   0.5000000   0.5000000   0.6640075), wk =   0.0070423
        k(  281) = (   0.5000000   0.5000000   0.6841290), wk =   0.0070423
        k(  282) = (   0.5000000   0.5000000   0.7042504), wk =   0.0070423
        k(  283) = (   0.5000000   0.5000000   0.7243718), wk =   0.0070423
        k(  284) = (   0.5000000   0.5000000   0.7444933), wk =   0.0070423

                       cryst. coord.
        k(    1) = (   0.0000000   0.0000000   0.0000000), wk =   0.0070423
        k(    2) = (   0.0000000   0.0200000   0.0000000), wk =   0.0070423
        k(    3) = (   0.0000000   0.0400000   0.0000000), wk =   0.0070423
        k(    4) = (   0.0000000   0.0600000   0.0000000), wk =   0.0070423
        k(    5) = (   0.0000000   0.0800000   0.0000000), wk =   0.0070423
        k(    6) = (   0.0000000   0.1000000   0.0000000), wk =   0.0070423
        k(    7) = (   0.0000000   0.1200000   0.0000000), wk =   0.0070423
        k(    8) = (   0.0000000   0.1400000   0.0000000), wk =   0.0070423
        k(    9) = (   0.0000000   0.1600000   0.0000000), wk =   0.0070423
        k(   10) = (   0.0000000   0.1800000   0.0000000), wk =   0.0070423
        k(   11) = (   0.0000000   0.2000000   0.0000000), wk =   0.0070423
        k(   12) = (   0.0000000   0.2200000   0.0000000), wk =   0.0070423
        k(   13) = (   0.0000000   0.2400000   0.0000000), wk =   0.0070423
        k(   14) = (   0.0000000   0.2600000   0.0000000), wk =   0.0070423
        k(   15) = (   0.0000000   0.2800000   0.0000000), wk =   0.0070423
        k(   16) = (   0.0000000   0.3000000   0.0000000), wk =   0.0070423
        k(   17) = (   0.0000000   0.3200000   0.0000000), wk =   0.0070423
        k(   18) = (   0.0000000   0.3400000   0.0000000), wk =   0.0070423
        k(   19) = (   0.0000000   0.3600000   0.0000000), wk =   0.0070423
        k(   20) = (   0.0000000   0.3800000   0.0000000), wk =   0.0070423
        k(   21) = (   0.0000000   0.4000000   0.0000000), wk =   0.0070423
        k(   22) = (   0.0000000   0.4200000   0.0000000), wk =   0.0070423
        k(   23) = (   0.0000000   0.4400000   0.0000000), wk =   0.0070423
        k(   24) = (   0.0000000   0.4600000   0.0000000), wk =   0.0070423
        k(   25) = (   0.0000000   0.4800000   0.0000000), wk =   0.0070423
        k(   26) = (   0.0000000   0.5000000   0.0000000), wk =   0.0070423
        k(   27) = (   0.0200000   0.5000000   0.0000000), wk =   0.0070423
        k(   28) = (   0.0400000   0.5000000   0.0000000), wk =   0.0070423
        k(   29) = (   0.0600000   0.5000000   0.0000000), wk =   0.0070423
        k(   30) = (   0.0800000   0.5000000   0.0000000), wk =   0.0070423
        k(   31) = (   0.1000000   0.5000000   0.0000000), wk =   0.0070423
        k(   32) = (   0.1200000   0.5000000   0.0000000), wk =   0.0070423
        k(   33) = (   0.1400000   0.5000000   0.0000000), wk =   0.0070423
        k(   34) = (   0.1600000   0.5000000   0.0000000), wk =   0.0070423
        k(   35) = (   0.1800000   0.5000000   0.0000000), wk =   0.0070423
        k(   36) = (   0.2000000   0.5000000   0.0000000), wk =   0.0070423
        k(   37) = (   0.2200000   0.5000000   0.0000000), wk =   0.0070423
        k(   38) = (   0.2400000   0.5000000   0.0000000), wk =   0.0070423
        k(   39) = (   0.2600000   0.5000000   0.0000000), wk =   0.0070423
        k(   40) = (   0.2800000   0.5000000   0.0000000), wk =   0.0070423
        k(   41) = (   0.3000000   0.5000000   0.0000000), wk =   0.0070423
        k(   42) = (   0.3200000   0.5000000   0.0000000), wk =   0.0070423
        k(   43) = (   0.3400000   0.5000000   0.0000000), wk =   0.0070423
        k(   44) = (   0.3600000   0.5000000   0.0000000), wk =   0.0070423
        k(   45) = (   0.3800000   0.5000000   0.0000000), wk =   0.0070423
        k(   46) = (   0.4000000   0.5000000   0.0000000), wk =   0.0070423
        k(   47) = (   0.4200000   0.5000000   0.0000000), wk =   0.0070423
        k(   48) = (   0.4400000   0.5000000   0.0000000), wk =   0.0070423
        k(   49) = (   0.4600000   0.5000000   0.0000000), wk =   0.0070423
        k(   50) = (   0.4800000   0.5000000   0.0000000), wk =   0.0070423
        k(   51) = (   0.5000000   0.5000000   0.0000000), wk =   0.0070423
        k(   52) = (   0.4857143   0.4857143   0.0000000), wk =   0.0070423
        k(   53) = (   0.4714286   0.4714286   0.0000000), wk =   0.0070423
        k(   54) = (   0.4571429   0.4571429   0.0000000), wk =   0.0070423
        k(   55) = (   0.4428571   0.4428571   0.0000000), wk =   0.0070423
        k(   56) = (   0.4285714   0.4285714   0.0000000), wk =   0.0070423
        k(   57) = (   0.4142857   0.4142857   0.0000000), wk =   0.0070423
        k(   58) = (   0.4000000   0.4000000   0.0000000), wk =   0.0070423
        k(   59) = (   0.3857143   0.3857143   0.0000000), wk =   0.0070423
        k(   60) = (   0.3714286   0.3714286   0.0000000), wk =   0.0070423
        k(   61) = (   0.3571429   0.3571429   0.0000000), wk =   0.0070423
        k(   62) = (   0.3428571   0.3428571   0.0000000), wk =   0.0070423
        k(   63) = (   0.3285714   0.3285714   0.0000000), wk =   0.0070423
        k(   64) = (   0.3142857   0.3142857   0.0000000), wk =   0.0070423
        k(   65) = (   0.3000000   0.3000000   0.0000000), wk =   0.0070423
        k(   66) = (   0.2857143   0.2857143   0.0000000), wk =   0.0070423
        k(   67) = (   0.2714286   0.2714286   0.0000000), wk =   0.0070423
        k(   68) = (   0.2571429   0.2571429   0.0000000), wk =   0.0070423
        k(   69) = (   0.2428571   0.2428571   0.0000000), wk =   0.0070423
        k(   70) = (   0.2285714   0.2285714   0.0000000), wk =   0.0070423
        k(   71) = (   0.2142857   0.2142857   0.0000000), wk =   0.0070423
        k(   72) = (   0.2000000   0.2000000   0.0000000), wk =   0.0070423
        k(   73) = (   0.1857143   0.1857143   0.0000000), wk =   0.0070423
        k(   74) = (   0.1714286   0.1714286   0.0000000), wk =   0.0070423
        k(   75) = (   0.1571429   0.1571429   0.0000000), wk =   0.0070423
        k(   76) = (   0.1428571   0.1428571   0.0000000), wk =   0.0070423
        k(   77) = (   0.1285714   0.1285714   0.0000000), wk =   0.0070423
        k(   78) = (   0.1142857   0.1142857   0.0000000), wk =   0.0070423
        k(   79) = (   0.1000000   0.1000000   0.0000000), wk =   0.0070423
        k(   80) = (   0.0857143   0.0857143   0.0000000), wk =   0.0070423
        k(   81) = (   0.0714286   0.0714286   0.0000000), wk =   0.0070423
        k(   82) = (   0.0571429   0.0571429   0.0000000), wk =   0.0070423
        k(   83) = (   0.0428571   0.0428571   0.0000000), wk =   0.0070423
        k(   84) = (   0.0285714   0.0285714   0.0000000), wk =   0.0070423
        k(   85) = (   0.0142857   0.0142857   0.0000000), wk =   0.0070423
        k(   86) = (   0.0000000   0.0000000   0.0000000), wk =   0.0070423
        k(   87) = (   0.0000000   0.0000000   0.0135135), wk =   0.0070423
        k(   88) = (   0.0000000   0.0000000   0.0270270), wk =   0.0070423
        k(   89) = (   0.0000000   0.0000000   0.0405405), wk =   0.0070423
        k(   90) = (   0.0000000   0.0000000   0.0540541), wk =   0.0070423
        k(   91) = (   0.0000000   0.0000000   0.0675676), wk =   0.0070423
        k(   92) = (   0.0000000   0.0000000   0.0810811), wk =   0.0070423
        k(   93) = (   0.0000000   0.0000000   0.0945946), wk =   0.0070423
        k(   94) = (   0.0000000   0.0000000   0.1081081), wk =   0.0070423
        k(   95) = (   0.0000000   0.0000000   0.1216216), wk =   0.0070423
        k(   96) = (   0.0000000   0.0000000   0.1351351), wk =   0.0070423
        k(   97) = (   0.0000000   0.0000000   0.1486486), wk =   0.0070423
        k(   98) = (   0.0000000   0.0000000   0.1621622), wk =   0.0070423
        k(   99) = (   0.0000000   0.0000000   0.1756757), wk =   0.0070423
        k(  100) = (   0.0000000   0.0000000   0.1891892), wk =   0.0070423
        k(  101) = (   0.0000000   0.0000000   0.2027027), wk =   0.0070423
        k(  102) = (   0.0000000   0.0000000   0.2162162), wk =   0.0070423
        k(  103) = (   0.0000000   0.0000000   0.2297297), wk =   0.0070423
        k(  104) = (   0.0000000   0.0000000   0.2432432), wk =   0.0070423
        k(  105) = (   0.0000000   0.0000000   0.2567568), wk =   0.0070423
        k(  106) = (   0.0000000   0.0000000   0.2702703), wk =   0.0070423
        k(  107) = (   0.0000000   0.0000000   0.2837838), wk =   0.0070423
        k(  108) = (   0.0000000   0.0000000   0.2972973), wk =   0.0070423
        k(  109) = (   0.0000000   0.0000000   0.3108108), wk =   0.0070423
        k(  110) = (   0.0000000   0.0000000   0.3243243), wk =   0.0070423
        k(  111) = (   0.0000000   0.0000000   0.3378378), wk =   0.0070423
        k(  112) = (   0.0000000   0.0000000   0.3513514), wk =   0.0070423
        k(  113) = (   0.0000000   0.0000000   0.3648649), wk =   0.0070423
        k(  114) = (   0.0000000   0.0000000   0.3783784), wk =   0.0070423
        k(  115) = (   0.0000000   0.0000000   0.3918919), wk =   0.0070423
        k(  116) = (   0.0000000   0.0000000   0.4054054), wk =   0.0070423
        k(  117) = (   0.0000000   0.0000000   0.4189189), wk =   0.0070423
        k(  118) = (   0.0000000   0.0000000   0.4324324), wk =   0.0070423
        k(  119) = (   0.0000000   0.0000000   0.4459459), wk =   0.0070423
        k(  120) = (   0.0000000   0.0000000   0.4594595), wk =   0.0070423
        k(  121) = (   0.0000000   0.0000000   0.4729730), wk =   0.0070423
        k(  122) = (   0.0000000   0.0000000   0.4864865), wk =   0.0070423
        k(  123) = (   0.0000000   0.0000000   0.5000000), wk =   0.0070423
        k(  124) = (   0.0000000   0.0200000   0.5000000), wk =   0.0070423
        k(  125) = (   0.0000000   0.0400000   0.5000000), wk =   0.0070423
        k(  126) = (   0.0000000   0.0600000   0.5000000), wk =   0.0070423
        k(  127) = (   0.0000000   0.0800000   0.5000000), wk =   0.0070423
        k(  128) = (   0.0000000   0.1000000   0.5000000), wk =   0.0070423
        k(  129) = (   0.0000000   0.1200000   0.5000000), wk =   0.0070423
        k(  130) = (   0.0000000   0.1400000   0.5000000), wk =   0.0070423
        k(  131) = (   0.0000000   0.1600000   0.5000000), wk =   0.0070423
        k(  132) = (   0.0000000   0.1800000   0.5000000), wk =   0.0070423
        k(  133) = (   0.0000000   0.2000000   0.5000000), wk =   0.0070423
        k(  134) = (   0.0000000   0.2200000   0.5000000), wk =   0.0070423
        k(  135) = (   0.0000000   0.2400000   0.5000000), wk =   0.0070423
        k(  136) = (   0.0000000   0.2600000   0.5000000), wk =   0.0070423
        k(  137) = (   0.0000000   0.2800000   0.5000000), wk =   0.0070423
        k(  138) = (   0.0000000   0.3000000   0.5000000), wk =   0.0070423
        k(  139) = (   0.0000000   0.3200000   0.5000000), wk =   0.0070423
        k(  140) = (   0.0000000   0.3400000   0.5000000), wk =   0.0070423
        k(  141) = (   0.0000000   0.3600000   0.5000000), wk =   0.0070423
        k(  142) = (   0.0000000   0.3800000   0.5000000), wk =   0.0070423
        k(  143) = (   0.0000000   0.4000000   0.5000000), wk =   0.0070423
        k(  144) = (   0.0000000   0.4200000   0.5000000), wk =   0.0070423
        k(  145) = (   0.0000000   0.4400000   0.5000000), wk =   0.0070423
        k(  146) = (   0.0000000   0.4600000   0.5000000), wk =   0.0070423
        k(  147) = (   0.0000000   0.4800000   0.5000000), wk =   0.0070423
        k(  148) = (   0.0000000   0.5000000   0.5000000), wk =   0.0070423
        k(  149) = (   0.0200000   0.5000000   0.5000000), wk =   0.0070423
        k(  150) = (   0.0400000   0.5000000   0.5000000), wk =   0.0070423
        k(  151) = (   0.0600000   0.5000000   0.5000000), wk =   0.0070423
        k(  152) = (   0.0800000   0.5000000   0.5000000), wk =   0.0070423
        k(  153) = (   0.1000000   0.5000000   0.5000000), wk =   0.0070423
        k(  154) = (   0.1200000   0.5000000   0.5000000), wk =   0.0070423
        k(  155) = (   0.1400000   0.5000000   0.5000000), wk =   0.0070423
        k(  156) = (   0.1600000   0.5000000   0.5000000), wk =   0.0070423
        k(  157) = (   0.1800000   0.5000000   0.5000000), wk =   0.0070423
        k(  158) = (   0.2000000   0.5000000   0.5000000), wk =   0.0070423
        k(  159) = (   0.2200000   0.5000000   0.5000000), wk =   0.0070423
        k(  160) = (   0.2400000   0.5000000   0.5000000), wk =   0.0070423
        k(  161) = (   0.2600000   0.5000000   0.5000000), wk =   0.0070423
        k(  162) = (   0.2800000   0.5000000   0.5000000), wk =   0.0070423
        k(  163) = (   0.3000000   0.5000000   0.5000000), wk =   0.0070423
        k(  164) = (   0.3200000   0.5000000   0.5000000), wk =   0.0070423
        k(  165) = (   0.3400000   0.5000000   0.5000000), wk =   0.0070423
        k(  166) = (   0.3600000   0.5000000   0.5000000), wk =   0.0070423
        k(  167) = (   0.3800000   0.5000000   0.5000000), wk =   0.0070423
        k(  168) = (   0.4000000   0.5000000   0.5000000), wk =   0.0070423
        k(  169) = (   0.4200000   0.5000000   0.5000000), wk =   0.0070423
        k(  170) = (   0.4400000   0.5000000   0.5000000), wk =   0.0070423
        k(  171) = (   0.4600000   0.5000000   0.5000000), wk =   0.0070423
        k(  172) = (   0.4800000   0.5000000   0.5000000), wk =   0.0070423
        k(  173) = (   0.5000000   0.5000000   0.5000000), wk =   0.0070423
        k(  174) = (   0.4857143   0.4857143   0.5000000), wk =   0.0070423
        k(  175) = (   0.4714286   0.4714286   0.5000000), wk =   0.0070423
        k(  176) = (   0.4571429   0.4571429   0.5000000), wk =   0.0070423
        k(  177) = (   0.4428571   0.4428571   0.5000000), wk =   0.0070423
        k(  178) = (   0.4285714   0.4285714   0.5000000), wk =   0.0070423
        k(  179) = (   0.4142857   0.4142857   0.5000000), wk =   0.0070423
        k(  180) = (   0.4000000   0.4000000   0.5000000), wk =   0.0070423
        k(  181) = (   0.3857143   0.3857143   0.5000000), wk =   0.0070423
        k(  182) = (   0.3714286   0.3714286   0.5000000), wk =   0.0070423
        k(  183) = (   0.3571429   0.3571429   0.5000000), wk =   0.0070423
        k(  184) = (   0.3428571   0.3428571   0.5000000), wk =   0.0070423
        k(  185) = (   0.3285714   0.3285714   0.5000000), wk =   0.0070423
        k(  186) = (   0.3142857   0.3142857   0.5000000), wk =   0.0070423
        k(  187) = (   0.3000000   0.3000000   0.5000000), wk =   0.0070423
        k(  188) = (   0.2857143   0.2857143   0.5000000), wk =   0.0070423
        k(  189) = (   0.2714286   0.2714286   0.5000000), wk =   0.0070423
        k(  190) = (   0.2571429   0.2571429   0.5000000), wk =   0.0070423
        k(  191) = (   0.2428571   0.2428571   0.5000000), wk =   0.0070423
        k(  192) = (   0.2285714   0.2285714   0.5000000), wk =   0.0070423
        k(  193) = (   0.2142857   0.2142857   0.5000000), wk =   0.0070423
        k(  194) = (   0.2000000   0.2000000   0.5000000), wk =   0.0070423
        k(  195) = (   0.1857143   0.1857143   0.5000000), wk =   0.0070423
        k(  196) = (   0.1714286   0.1714286   0.5000000), wk =   0.0070423
        k(  197) = (   0.1571429   0.1571429   0.5000000), wk =   0.0070423
        k(  198) = (   0.1428571   0.1428571   0.5000000), wk =   0.0070423
        k(  199) = (   0.1285714   0.1285714   0.5000000), wk =   0.0070423
        k(  200) = (   0.1142857   0.1142857   0.5000000), wk =   0.0070423
        k(  201) = (   0.1000000   0.1000000   0.5000000), wk =   0.0070423
        k(  202) = (   0.0857143   0.0857143   0.5000000), wk =   0.0070423
        k(  203) = (   0.0714286   0.0714286   0.5000000), wk =   0.0070423
        k(  204) = (   0.0571429   0.0571429   0.5000000), wk =   0.0070423
        k(  205) = (   0.0428571   0.0428571   0.5000000), wk =   0.0070423
        k(  206) = (   0.0285714   0.0285714   0.5000000), wk =   0.0070423
        k(  207) = (   0.0142857   0.0142857   0.5000000), wk =   0.0070423
        k(  208) = (   0.0000000   0.0000000   0.5000000), wk =   0.0070423
        k(  209) = (   0.0000000   0.5000000   0.0000000), wk =   0.0070423
        k(  210) = (   0.0000000   0.5000000   0.0135135), wk =   0.0070423
        k(  211) = (   0.0000000   0.5000000   0.0270270), wk =   0.0070423
        k(  212) = (   0.0000000   0.5000000   0.0405405), wk =   0.0070423
        k(  213) = (   0.0000000   0.5000000   0.0540541), wk =   0.0070423
        k(  214) = (   0.0000000   0.5000000   0.0675676), wk =   0.0070423
        k(  215) = (   0.0000000   0.5000000   0.0810811), wk =   0.0070423
        k(  216) = (   0.0000000   0.5000000   0.0945946), wk =   0.0070423
        k(  217) = (   0.0000000   0.5000000   0.1081081), wk =   0.0070423
        k(  218) = (   0.0000000   0.5000000   0.1216216), wk =   0.0070423
        k(  219) = (   0.0000000   0.5000000   0.1351351), wk =   0.0070423
        k(  220) = (   0.0000000   0.5000000   0.1486486), wk =   0.0070423
        k(  221) = (   0.0000000   0.5000000   0.1621622), wk =   0.0070423
        k(  222) = (   0.0000000   0.5000000   0.1756757), wk =   0.0070423
        k(  223) = (   0.0000000   0.5000000   0.1891892), wk =   0.0070423
        k(  224) = (   0.0000000   0.5000000   0.2027027), wk =   0.0070423
        k(  225) = (   0.0000000   0.5000000   0.2162162), wk =   0.0070423
        k(  226) = (   0.0000000   0.5000000   0.2297297), wk =   0.0070423
        k(  227) = (   0.0000000   0.5000000   0.2432432), wk =   0.0070423
        k(  228) = (   0.0000000   0.5000000   0.2567568), wk =   0.0070423
        k(  229) = (   0.0000000   0.5000000   0.2702703), wk =   0.0070423
        k(  230) = (   0.0000000   0.5000000   0.2837838), wk =   0.0070423
        k(  231) = (   0.0000000   0.5000000   0.2972973), wk =   0.0070423
        k(  232) = (   0.0000000   0.5000000   0.3108108), wk =   0.0070423
        k(  233) = (   0.0000000   0.5000000   0.3243243), wk =   0.0070423
        k(  234) = (   0.0000000   0.5000000   0.3378378), wk =   0.0070423
        k(  235) = (   0.0000000   0.5000000   0.3513514), wk =   0.0070423
        k(  236) = (   0.0000000   0.5000000   0.3648649), wk =   0.0070423
        k(  237) = (   0.0000000   0.5000000   0.3783784), wk =   0.0070423
        k(  238) = (   0.0000000   0.5000000   0.3918919), wk =   0.0070423
        k(  239) = (   0.0000000   0.5000000   0.4054054), wk =   0.0070423
        k(  240) = (   0.0000000   0.5000000   0.4189189), wk =   0.0070423
        k(  241) = (   0.0000000   0.5000000   0.4324324), wk =   0.0070423
        k(  242) = (   0.0000000   0.5000000   0.4459459), wk =   0.0070423
        k(  243) = (   0.0000000   0.5000000   0.4594595), wk =   0.0070423
        k(  244) = (   0.0000000   0.5000000   0.4729730), wk =   0.0070423
        k(  245) = (   0.0000000   0.5000000   0.4864865), wk =   0.0070423
        k(  246) = (   0.0000000   0.5000000   0.5000000), wk =   0.0070423
        k(  247) = (   0.5000000   0.5000000   0.0000000), wk =   0.0070423
        k(  248) = (   0.5000000   0.5000000   0.0135135), wk =   0.0070423
        k(  249) = (   0.5000000   0.5000000   0.0270270), wk =   0.0070423
        k(  250) = (   0.5000000   0.5000000   0.0405405), wk =   0.0070423
        k(  251) = (   0.5000000   0.5000000   0.0540541), wk =   0.0070423
        k(  252) = (   0.5000000   0.5000000   0.0675676), wk =   0.0070423
        k(  253) = (   0.5000000   0.5000000   0.0810811), wk =   0.0070423
        k(  254) = (   0.5000000   0.5000000   0.0945946), wk =   0.0070423
        k(  255) = (   0.5000000   0.5000000   0.1081081), wk =   0.0070423
        k(  256) = (   0.5000000   0.5000000   0.1216216), wk =   0.0070423
        k(  257) = (   0.5000000   0.5000000   0.1351351), wk =   0.0070423
        k(  258) = (   0.5000000   0.5000000   0.1486486), wk =   0.0070423
        k(  259) = (   0.5000000   0.5000000   0.1621622), wk =   0.0070423
        k(  260) = (   0.5000000   0.5000000   0.1756757), wk =   0.0070423
        k(  261) = (   0.5000000   0.5000000   0.1891892), wk =   0.0070423
        k(  262) = (   0.5000000   0.5000000   0.2027027), wk =   0.0070423
        k(  263) = (   0.5000000   0.5000000   0.2162162), wk =   0.0070423
        k(  264) = (   0.5000000   0.5000000   0.2297297), wk =   0.0070423
        k(  265) = (   0.5000000   0.5000000   0.2432432), wk =   0.0070423
        k(  266) = (   0.5000000   0.5000000   0.2567568), wk =   0.0070423
        k(  267) = (   0.5000000   0.5000000   0.2702703), wk =   0.0070423
        k(  268) = (   0.5000000   0.5000000   0.2837838), wk =   0.0070423
        k(  269) = (   0.5000000   0.5000000   0.2972973), wk =   0.0070423
        k(  270) = (   0.5000000   0.5000000   0.3108108), wk =   0.0070423
        k(  271) = (   0.5000000   0.5000000   0.3243243), wk =   0.0070423
        k(  272) = (   0.5000000   0.5000000   0.3378378), wk =   0.0070423
        k(  273) = (   0.5000000   0.5000000   0.3513514), wk =   0.0070423
        k(  274) = (   0.5000000   0.5000000   0.3648649), wk =   0.0070423
        k(  275) = (   0.5000000   0.5000000   0.3783784), wk =   0.0070423
        k(  276) = (   0.5000000   0.5000000   0.3918919), wk =   0.0070423
        k(  277) = (   0.5000000   0.5000000   0.4054054), wk =   0.0070423
        k(  278) = (   0.5000000   0.5000000   0.4189189), wk =   0.0070423
        k(  279) = (   0.5000000   0.5000000   0.4324324), wk =   0.0070423
        k(  280) = (   0.5000000   0.5000000   0.4459459), wk =   0.0070423
        k(  281) = (   0.5000000   0.5000000   0.4594595), wk =   0.0070423
        k(  282) = (   0.5000000   0.5000000   0.4729730), wk =   0.0070423
        k(  283) = (   0.5000000   0.5000000   0.4864865), wk =   0.0070423
        k(  284) = (   0.5000000   0.5000000   0.5000000), wk =   0.0070423

     Dense  grid:    44945 G-vectors     FFT dimensions: (  54,  54,  36)

     Dynamical RAM for                 wfc:       1.20 MB

     Dynamical RAM for     wfc (w. buffer):       1.20 MB

     Dynamical RAM for           str. fact:       0.69 MB

     Dynamical RAM for           local pot:       0.00 MB

     Dynamical RAM for          nlocal pot:       3.77 MB

     Dynamical RAM for                qrad:       4.04 MB

     Dynamical RAM for          rho,v,vnew:       2.23 MB

     Dynamical RAM for           G-vectors:       1.46 MB

     Dynamical RAM for          h,s,v(r/c):       0.57 MB

     Dynamical RAM for          <psi|beta>:       0.04 MB

     Dynamical RAM for                 psi:       4.80 MB

     Dynamical RAM for                hpsi:       4.80 MB

     Dynamical RAM for      wfcinit/wfcrot:       2.94 MB

     Estimated static dynamical RAM per process >      16.42 MB

     Estimated max dynamical RAM per process >      26.63 MB

     Estimated total dynamical RAM >      53.26 MB

     Check: negative/imaginary core charge=   -0.000002    0.000000

     The potential is recalculated from file :
     ./SnO2.save/charge-density.dat

     Starting wfc are   34 randomized atomic wfcs

     Band Structure Calculation
     Davidson diagonalization with overlap

     Computing kpt #:     1
     total cpu time spent up to now is        4.3 secs

     Computing kpt #:     2
     total cpu time spent up to now is        6.9 secs

     Computing kpt #:     3
     total cpu time spent up to now is        9.7 secs

     Computing kpt #:     4
     total cpu time spent up to now is       12.1 secs

     Computing kpt #:     5
     total cpu time spent up to now is       14.9 secs

     Computing kpt #:     6
     total cpu time spent up to now is       17.6 secs

     Computing kpt #:     7
     total cpu time spent up to now is       20.4 secs

     Computing kpt #:     8
     total cpu time spent up to now is       23.2 secs

     Computing kpt #:     9
     total cpu time spent up to now is       26.0 secs

     Computing kpt #:    10
     total cpu time spent up to now is       28.9 secs

     Computing kpt #:    11
     total cpu time spent up to now is       31.3 secs

     Computing kpt #:    12
     total cpu time spent up to now is       34.2 secs

     Computing kpt #:    13
     total cpu time spent up to now is       36.5 secs

     Computing kpt #:    14
     total cpu time spent up to now is       38.9 secs

     Computing kpt #:    15
     total cpu time spent up to now is       41.2 secs

     Computing kpt #:    16
     total cpu time spent up to now is       43.5 secs

     Computing kpt #:    17
     total cpu time spent up to now is       45.8 secs

     Computing kpt #:    18
     total cpu time spent up to now is       48.0 secs

     Computing kpt #:    19
     total cpu time spent up to now is       50.2 secs

     Computing kpt #:    20
     total cpu time spent up to now is       52.3 secs

     Computing kpt #:    21
     total cpu time spent up to now is       54.5 secs

     Computing kpt #:    22
     total cpu time spent up to now is       56.6 secs

     Computing kpt #:    23
     total cpu time spent up to now is       58.8 secs

     Computing kpt #:    24
     total cpu time spent up to now is       61.0 secs

     Computing kpt #:    25
     total cpu time spent up to now is       63.2 secs

     Computing kpt #:    26
     total cpu time spent up to now is       65.4 secs

     Computing kpt #:    27
     total cpu time spent up to now is       67.6 secs

     Computing kpt #:    28
     total cpu time spent up to now is       69.7 secs

     Computing kpt #:    29
     total cpu time spent up to now is       71.9 secs

     Computing kpt #:    30
     total cpu time spent up to now is       74.0 secs

     Computing kpt #:    31
     total cpu time spent up to now is       76.2 secs

     Computing kpt #:    32
     total cpu time spent up to now is       78.3 secs

     Computing kpt #:    33
     total cpu time spent up to now is       80.7 secs

     Computing kpt #:    34
     total cpu time spent up to now is       83.0 secs

     Computing kpt #:    35
     total cpu time spent up to now is       85.4 secs

     Computing kpt #:    36
     total cpu time spent up to now is       87.7 secs

     Computing kpt #:    37
     total cpu time spent up to now is       90.1 secs

     Computing kpt #:    38
     total cpu time spent up to now is       92.5 secs

     Computing kpt #:    39
     total cpu time spent up to now is       94.8 secs

     Computing kpt #:    40
     total cpu time spent up to now is       97.1 secs

     Computing kpt #:    41
     total cpu time spent up to now is       99.4 secs

     Computing kpt #:    42
     total cpu time spent up to now is      101.6 secs

     Computing kpt #:    43
     total cpu time spent up to now is      103.8 secs

     Computing kpt #:    44
     total cpu time spent up to now is      106.0 secs

     Computing kpt #:    45
     total cpu time spent up to now is      108.1 secs

     Computing kpt #:    46
     total cpu time spent up to now is      110.1 secs

     Computing kpt #:    47
     total cpu time spent up to now is      112.2 secs

     Computing kpt #:    48
     total cpu time spent up to now is      114.3 secs

     Computing kpt #:    49
     total cpu time spent up to now is      116.6 secs

     Computing kpt #:    50
     total cpu time spent up to now is      118.8 secs

     Computing kpt #:    51
     total cpu time spent up to now is      120.7 secs

     Computing kpt #:    52
     total cpu time spent up to now is      122.8 secs

     Computing kpt #:    53
     total cpu time spent up to now is      124.7 secs

     Computing kpt #:    54
     total cpu time spent up to now is      126.9 secs

     Computing kpt #:    55
     total cpu time spent up to now is      129.1 secs

     Computing kpt #:    56
     total cpu time spent up to now is      131.4 secs

     Computing kpt #:    57
     total cpu time spent up to now is      133.8 secs

     Computing kpt #:    58
     total cpu time spent up to now is      136.1 secs

     Computing kpt #:    59
     total cpu time spent up to now is      138.4 secs

     Computing kpt #:    60
     total cpu time spent up to now is      140.7 secs

     Computing kpt #:    61
     total cpu time spent up to now is      143.1 secs

     Computing kpt #:    62
     total cpu time spent up to now is      145.5 secs

     Computing kpt #:    63
     total cpu time spent up to now is      147.6 secs

     Computing kpt #:    64
     total cpu time spent up to now is      149.9 secs

     Computing kpt #:    65
     total cpu time spent up to now is      152.0 secs

     Computing kpt #:    66
     total cpu time spent up to now is      154.0 secs

     Computing kpt #:    67
     total cpu time spent up to now is      156.2 secs

     Computing kpt #:    68
     total cpu time spent up to now is      158.4 secs

     Computing kpt #:    69
     total cpu time spent up to now is      160.5 secs

     Computing kpt #:    70
     total cpu time spent up to now is      162.6 secs

     Computing kpt #:    71
     total cpu time spent up to now is      164.8 secs

     Computing kpt #:    72
     total cpu time spent up to now is      167.0 secs

     Computing kpt #:    73
     total cpu time spent up to now is      169.1 secs

     Computing kpt #:    74
     total cpu time spent up to now is      171.3 secs

     Computing kpt #:    75
     total cpu time spent up to now is      173.4 secs

     Computing kpt #:    76
     total cpu time spent up to now is      175.7 secs

     Computing kpt #:    77
     total cpu time spent up to now is      178.5 secs

     Computing kpt #:    78
     total cpu time spent up to now is      181.3 secs

     Computing kpt #:    79
     total cpu time spent up to now is      184.2 secs

     Computing kpt #:    80
     total cpu time spent up to now is      186.7 secs

     Computing kpt #:    81
     total cpu time spent up to now is      189.7 secs

     Computing kpt #:    82
     total cpu time spent up to now is      192.3 secs

     Computing kpt #:    83
     total cpu time spent up to now is      195.2 secs

     Computing kpt #:    84
     total cpu time spent up to now is      198.2 secs

     Computing kpt #:    85
     total cpu time spent up to now is      201.2 secs

     Computing kpt #:    86
     total cpu time spent up to now is      204.1 secs

     Computing kpt #:    87
     total cpu time spent up to now is      206.9 secs

     Computing kpt #:    88
     total cpu time spent up to now is      209.7 secs

     Computing kpt #:    89
     total cpu time spent up to now is      212.4 secs

     Computing kpt #:    90
     total cpu time spent up to now is      215.2 secs

     Computing kpt #:    91
     total cpu time spent up to now is      217.7 secs

     Computing kpt #:    92
     total cpu time spent up to now is      220.3 secs

     Computing kpt #:    93
     total cpu time spent up to now is      222.6 secs

     Computing kpt #:    94
     total cpu time spent up to now is      225.3 secs

     Computing kpt #:    95
     total cpu time spent up to now is      228.2 secs

     Computing kpt #:    96
     total cpu time spent up to now is      230.9 secs

     Computing kpt #:    97
     total cpu time spent up to now is      233.2 secs

     Computing kpt #:    98
     total cpu time spent up to now is      235.7 secs

     Computing kpt #:    99
     total cpu time spent up to now is      238.1 secs

     Computing kpt #:   100
     total cpu time spent up to now is      240.5 secs

     Computing kpt #:   101
     total cpu time spent up to now is      242.8 secs

     Computing kpt #:   102
     total cpu time spent up to now is      245.1 secs

     Computing kpt #:   103
     total cpu time spent up to now is      247.5 secs

     Computing kpt #:   104
     total cpu time spent up to now is      249.9 secs

     Computing kpt #:   105
     total cpu time spent up to now is      252.2 secs

     Computing kpt #:   106
     total cpu time spent up to now is      254.4 secs

     Computing kpt #:   107
     total cpu time spent up to now is      256.6 secs

     Computing kpt #:   108
     total cpu time spent up to now is      258.8 secs

     Computing kpt #:   109
     total cpu time spent up to now is      260.9 secs

     Computing kpt #:   110
     total cpu time spent up to now is      263.1 secs

     Computing kpt #:   111
     total cpu time spent up to now is      265.2 secs

     Computing kpt #:   112
     total cpu time spent up to now is      267.3 secs

     Computing kpt #:   113
     total cpu time spent up to now is      269.5 secs

     Computing kpt #:   114
     total cpu time spent up to now is      271.7 secs

     Computing kpt #:   115
     total cpu time spent up to now is      273.8 secs

     Computing kpt #:   116
     total cpu time spent up to now is      276.0 secs

     Computing kpt #:   117
     total cpu time spent up to now is      278.1 secs

     Computing kpt #:   118
     total cpu time spent up to now is      280.3 secs

     Computing kpt #:   119
     total cpu time spent up to now is      282.4 secs

     Computing kpt #:   120
     total cpu time spent up to now is      284.6 secs

     Computing kpt #:   121
     total cpu time spent up to now is      286.9 secs

     Computing kpt #:   122
     total cpu time spent up to now is      289.1 secs

     Computing kpt #:   123
     total cpu time spent up to now is      291.4 secs

     Computing kpt #:   124
     total cpu time spent up to now is      293.7 secs

     Computing kpt #:   125
     total cpu time spent up to now is      296.0 secs

     Computing kpt #:   126
     total cpu time spent up to now is      298.4 secs

     Computing kpt #:   127
     total cpu time spent up to now is      300.7 secs

     Computing kpt #:   128
     total cpu time spent up to now is      303.0 secs

     Computing kpt #:   129
     total cpu time spent up to now is      305.3 secs

     Computing kpt #:   130
     total cpu time spent up to now is      307.5 secs

     Computing kpt #:   131
     total cpu time spent up to now is      309.7 secs

     Computing kpt #:   132
     total cpu time spent up to now is      311.8 secs

     Computing kpt #:   133
     total cpu time spent up to now is      314.0 secs

     Computing kpt #:   134
     total cpu time spent up to now is      316.1 secs

     Computing kpt #:   135
     total cpu time spent up to now is      318.3 secs

     Computing kpt #:   136
     total cpu time spent up to now is      320.4 secs

     Computing kpt #:   137
     total cpu time spent up to now is      322.5 secs

     Computing kpt #:   138
     total cpu time spent up to now is      324.6 secs

     Computing kpt #:   139
     total cpu time spent up to now is      326.7 secs

     Computing kpt #:   140
     total cpu time spent up to now is      328.9 secs

     Computing kpt #:   141
     total cpu time spent up to now is      331.0 secs

     Computing kpt #:   142
     total cpu time spent up to now is      333.2 secs

     Computing kpt #:   143
     total cpu time spent up to now is      335.3 secs

     Computing kpt #:   144
     total cpu time spent up to now is      337.3 secs

     Computing kpt #:   145
     total cpu time spent up to now is      339.4 secs

     Computing kpt #:   146
     total cpu time spent up to now is      341.4 secs

     Computing kpt #:   147
     total cpu time spent up to now is      343.5 secs

     Computing kpt #:   148
     total cpu time spent up to now is      345.6 secs

     Computing kpt #:   149
     total cpu time spent up to now is      347.7 secs

     Computing kpt #:   150
     total cpu time spent up to now is      349.8 secs

     Computing kpt #:   151
     total cpu time spent up to now is      351.9 secs

     Computing kpt #:   152
     total cpu time spent up to now is      354.1 secs

     Computing kpt #:   153
     total cpu time spent up to now is      356.2 secs

     Computing kpt #:   154
     total cpu time spent up to now is      358.3 secs

     Computing kpt #:   155
     total cpu time spent up to now is      360.5 secs

     Computing kpt #:   156
     total cpu time spent up to now is      362.7 secs

     Computing kpt #:   157
     total cpu time spent up to now is      364.9 secs

     Computing kpt #:   158
     total cpu time spent up to now is      367.0 secs

     Computing kpt #:   159
     total cpu time spent up to now is      369.1 secs

     Computing kpt #:   160
     total cpu time spent up to now is      371.2 secs

     Computing kpt #:   161
     total cpu time spent up to now is      373.3 secs

     Computing kpt #:   162
     total cpu time spent up to now is      375.5 secs

     Computing kpt #:   163
     total cpu time spent up to now is      377.6 secs

     Computing kpt #:   164
     total cpu time spent up to now is      379.7 secs

     Computing kpt #:   165
     total cpu time spent up to now is      381.8 secs

     Computing kpt #:   166
     total cpu time spent up to now is      383.9 secs

     Computing kpt #:   167
     total cpu time spent up to now is      386.1 secs

     Computing kpt #:   168
     total cpu time spent up to now is      388.2 secs

     Computing kpt #:   169
     total cpu time spent up to now is      390.3 secs

     Computing kpt #:   170
     total cpu time spent up to now is      392.5 secs

     Computing kpt #:   171
     total cpu time spent up to now is      394.6 secs

     Computing kpt #:   172
     total cpu time spent up to now is      396.7 secs

     Computing kpt #:   173
     total cpu time spent up to now is      398.8 secs

     Computing kpt #:   174
     total cpu time spent up to now is      400.9 secs

     Computing kpt #:   175
     total cpu time spent up to now is      403.0 secs

     Computing kpt #:   176
     total cpu time spent up to now is      405.1 secs

     Computing kpt #:   177
     total cpu time spent up to now is      407.3 secs

     Computing kpt #:   178
     total cpu time spent up to now is      409.5 secs

     Computing kpt #:   179
     total cpu time spent up to now is      411.6 secs

     Computing kpt #:   180
     total cpu time spent up to now is      413.8 secs

     Computing kpt #:   181
     total cpu time spent up to now is      416.0 secs

     Computing kpt #:   182
     total cpu time spent up to now is      418.1 secs

     Computing kpt #:   183
     total cpu time spent up to now is      420.2 secs

     Computing kpt #:   184
     total cpu time spent up to now is      422.4 secs

     Computing kpt #:   185
     total cpu time spent up to now is      424.5 secs

     Computing kpt #:   186
     total cpu time spent up to now is      426.7 secs

     Computing kpt #:   187
     total cpu time spent up to now is      428.8 secs

     Computing kpt #:   188
     total cpu time spent up to now is      430.9 secs

     Computing kpt #:   189
     total cpu time spent up to now is      433.0 secs

     Computing kpt #:   190
     total cpu time spent up to now is      435.2 secs

     Computing kpt #:   191
     total cpu time spent up to now is      437.3 secs

     Computing kpt #:   192
     total cpu time spent up to now is      439.4 secs

     Computing kpt #:   193
     total cpu time spent up to now is      441.6 secs

     Computing kpt #:   194
     total cpu time spent up to now is      443.8 secs

     Computing kpt #:   195
     total cpu time spent up to now is      446.0 secs

     Computing kpt #:   196
     total cpu time spent up to now is      448.2 secs

     Computing kpt #:   197
     total cpu time spent up to now is      450.3 secs

     Computing kpt #:   198
     total cpu time spent up to now is      452.5 secs

     Computing kpt #:   199
     total cpu time spent up to now is      454.6 secs

     Computing kpt #:   200
     total cpu time spent up to now is      456.7 secs

     Computing kpt #:   201
     total cpu time spent up to now is      458.8 secs

     Computing kpt #:   202
     total cpu time spent up to now is      460.9 secs

     Computing kpt #:   203
     total cpu time spent up to now is      463.1 secs

     Computing kpt #:   204
     total cpu time spent up to now is      465.2 secs

     Computing kpt #:   205
     total cpu time spent up to now is      467.4 secs

     Computing kpt #:   206
     total cpu time spent up to now is      469.5 secs

     Computing kpt #:   207
     total cpu time spent up to now is      471.7 secs

     Computing kpt #:   208
     total cpu time spent up to now is      473.9 secs

     Computing kpt #:   209
     total cpu time spent up to now is      476.1 secs

     Computing kpt #:   210
     total cpu time spent up to now is      478.2 secs

     Computing kpt #:   211
     total cpu time spent up to now is      480.5 secs

     Computing kpt #:   212
     total cpu time spent up to now is      482.6 secs

     Computing kpt #:   213
     total cpu time spent up to now is      484.8 secs

     Computing kpt #:   214
     total cpu time spent up to now is      487.0 secs

     Computing kpt #:   215
     total cpu time spent up to now is      489.2 secs

     Computing kpt #:   216
     total cpu time spent up to now is      491.4 secs

     Computing kpt #:   217
     total cpu time spent up to now is      493.5 secs

     Computing kpt #:   218
     total cpu time spent up to now is      495.7 secs

     Computing kpt #:   219
     total cpu time spent up to now is      497.9 secs

     Computing kpt #:   220
     total cpu time spent up to now is      499.8 secs

     Computing kpt #:   221
     total cpu time spent up to now is      502.0 secs

     Computing kpt #:   222
     total cpu time spent up to now is      504.1 secs

     Computing kpt #:   223
     total cpu time spent up to now is      506.3 secs

     Computing kpt #:   224
     total cpu time spent up to now is      508.5 secs

     Computing kpt #:   225
     total cpu time spent up to now is      510.6 secs

     Computing kpt #:   226
     total cpu time spent up to now is      512.7 secs

     Computing kpt #:   227
     total cpu time spent up to now is      514.9 secs

     Computing kpt #:   228
     total cpu time spent up to now is      517.0 secs

     Computing kpt #:   229
     total cpu time spent up to now is      519.1 secs

     Computing kpt #:   230
     total cpu time spent up to now is      521.3 secs

     Computing kpt #:   231
     total cpu time spent up to now is      523.5 secs

     Computing kpt #:   232
     total cpu time spent up to now is      525.6 secs

     Computing kpt #:   233
     total cpu time spent up to now is      527.7 secs

     Computing kpt #:   234
     total cpu time spent up to now is      529.9 secs

     Computing kpt #:   235
     total cpu time spent up to now is      532.0 secs

     Computing kpt #:   236
     total cpu time spent up to now is      534.1 secs

     Computing kpt #:   237
     total cpu time spent up to now is      536.2 secs

     Computing kpt #:   238
     total cpu time spent up to now is      538.3 secs

     Computing kpt #:   239
     total cpu time spent up to now is      540.4 secs

     Computing kpt #:   240
     total cpu time spent up to now is      542.5 secs

     Computing kpt #:   241
     total cpu time spent up to now is      544.6 secs

     Computing kpt #:   242
     total cpu time spent up to now is      546.7 secs

     Computing kpt #:   243
     total cpu time spent up to now is      548.8 secs

     Computing kpt #:   244
     total cpu time spent up to now is      550.8 secs

     Computing kpt #:   245
     total cpu time spent up to now is      552.9 secs

     Computing kpt #:   246
     total cpu time spent up to now is      554.9 secs

     Computing kpt #:   247
     total cpu time spent up to now is      557.1 secs

     Computing kpt #:   248
     total cpu time spent up to now is      559.1 secs

     Computing kpt #:   249
     total cpu time spent up to now is      561.3 secs

     Computing kpt #:   250
     total cpu time spent up to now is      563.4 secs

     Computing kpt #:   251
     total cpu time spent up to now is      565.6 secs

     Computing kpt #:   252
     total cpu time spent up to now is      567.7 secs

     Computing kpt #:   253
     total cpu time spent up to now is      569.9 secs

     Computing kpt #:   254
     total cpu time spent up to now is      572.0 secs

     Computing kpt #:   255
     total cpu time spent up to now is      574.2 secs

     Computing kpt #:   256
     total cpu time spent up to now is      576.4 secs

     Computing kpt #:   257
     total cpu time spent up to now is      578.5 secs

     Computing kpt #:   258
     total cpu time spent up to now is      580.8 secs

     Computing kpt #:   259
     total cpu time spent up to now is      583.0 secs

     Computing kpt #:   260
     total cpu time spent up to now is      585.1 secs

     Computing kpt #:   261
     total cpu time spent up to now is      587.3 secs

     Computing kpt #:   262
     total cpu time spent up to now is      589.5 secs

     Computing kpt #:   263
     total cpu time spent up to now is      591.7 secs

     Computing kpt #:   264
     total cpu time spent up to now is      593.9 secs

     Computing kpt #:   265
     total cpu time spent up to now is      596.0 secs

     Computing kpt #:   266
     total cpu time spent up to now is      598.2 secs

     Computing kpt #:   267
     total cpu time spent up to now is      600.4 secs

     Computing kpt #:   268
     total cpu time spent up to now is      602.6 secs

     Computing kpt #:   269
     total cpu time spent up to now is      604.7 secs

     Computing kpt #:   270
     total cpu time spent up to now is      606.9 secs

     Computing kpt #:   271
     total cpu time spent up to now is      609.1 secs

     Computing kpt #:   272
     total cpu time spent up to now is      611.3 secs

     Computing kpt #:   273
     total cpu time spent up to now is      613.4 secs

     Computing kpt #:   274
     total cpu time spent up to now is      615.6 secs

     Computing kpt #:   275
     total cpu time spent up to now is      617.7 secs

     Computing kpt #:   276
     total cpu time spent up to now is      619.9 secs

     Computing kpt #:   277
     total cpu time spent up to now is      622.0 secs

     Computing kpt #:   278
     total cpu time spent up to now is      624.1 secs

     Computing kpt #:   279
     total cpu time spent up to now is      626.3 secs

     Computing kpt #:   280
     total cpu time spent up to now is      628.4 secs

     Computing kpt #:   281
     total cpu time spent up to now is      630.6 secs

     Computing kpt #:   282
     total cpu time spent up to now is      632.8 secs

     Computing kpt #:   283
     total cpu time spent up to now is      634.8 secs

     Computing kpt #:   284
     total cpu time spent up to now is      636.9 secs

     ethr =  1.92E-15,  avg # of iterations = 31.3

     total cpu time spent up to now is      636.9 secs

     End of band structure calculation

          k = 0.0000 0.0000 0.0000 (  5609 PWs)   bands (ev):

   -12.1626 -11.5450 -11.3470 -11.3189 -11.3189 -11.2385 -11.2181 -11.1520
   -11.1404 -11.1404  -9.6859  -7.9707  -7.9707  -6.5142   0.9520   5.0331
     5.0331   5.1380   6.0354   6.8925   6.9464   7.6277   7.6277   8.1988
     8.1988   8.9050   9.4984  14.4954

          k = 0.0000 0.0200 0.0000 (  5621 PWs)   bands (ev):

   -12.1621 -11.5455 -11.3470 -11.3189 -11.3189 -11.2390 -11.2180 -11.1521
   -11.1405 -11.1405  -9.6847  -7.9733  -7.9688  -6.5148   0.9546   5.0241
     5.0348   5.1394   6.0375   6.8970   6.9436   7.6279   7.6284   8.1853
     8.1990   8.9031   9.5142  14.4909

          k = 0.0000 0.0400 0.0000 (  5625 PWs)   bands (ev):

   -12.1605 -11.5471 -11.3470 -11.3188 -11.3188 -11.2405 -11.2178 -11.1523
   -11.1406 -11.1405  -9.6811  -7.9810  -7.9629  -6.5167   0.9626   4.9976
     5.0401   5.1437   6.0438   6.9103   6.9353   7.6283   7.6303   8.1466
     8.1996   8.8974   9.5599  14.4779

          k = 0.0000 0.0600 0.0000 (  5627 PWs)   bands (ev):

   -12.1579 -11.5497 -11.3469 -11.3187 -11.3187 -11.2429 -11.2174 -11.1525
   -11.1407 -11.1407  -9.6750  -7.9938  -7.9532  -6.5198   0.9758   4.9546
     5.0489   5.1507   6.0544   6.9218   6.9311   7.6290   7.6335   8.0874
     8.2006   8.8878   9.6309  14.4572

          k = 0.0000 0.0800 0.0000 (  5619 PWs)   bands (ev):

   -12.1543 -11.5534 -11.3468 -11.3185 -11.3185 -11.2461 -11.2169 -11.1529
   -11.1409 -11.1409  -9.6666  -8.0114  -7.9398  -6.5244   0.9942   4.8967
     5.0612   5.1606   6.0690   6.9034   6.9582   7.6300   7.6376   8.0129
     8.2020   8.8745   9.7219  14.4300

          k = 0.0000 0.1000 0.0000 (  5623 PWs)   bands (ev):

   -12.1496 -11.5582 -11.3466 -11.3183 -11.3183 -11.2500 -11.2163 -11.1534
   -11.1412 -11.1411  -9.6557  -8.0337  -7.9226  -6.5304   1.0179   4.8257
     5.0770   5.1732   6.0878   6.8802   6.9897   7.6313   7.6425   7.9279
     8.2037   8.8576   9.8281  14.3970

          k = 0.0000 0.1200 0.0000 (  5619 PWs)   bands (ev):

   -12.1440 -11.5641 -11.3464 -11.3181 -11.3180 -11.2546 -11.2155 -11.1540
   -11.1415 -11.1414  -9.6424  -8.0604  -7.9019  -6.5382   1.0469   4.7433
     5.0961   5.1886   6.1106   6.8526   7.0238   7.6328   7.6478   7.8359
     8.2059   8.8372   9.9459  14.3590

          k = 0.0000 0.1400 0.0000 (  5619 PWs)   bands (ev):

   -12.1373 -11.5713 -11.3461 -11.3178 -11.3177 -11.2597 -11.2145 -11.1547
   -11.1418 -11.1418  -9.6267  -8.0911  -7.8779  -6.5477   1.0811   4.6514
     5.1187   5.2067   6.1372   6.8211   7.0587   7.6346   7.6535   7.7398
     8.2084   8.8136  10.0725  14.3164

          k = 0.0000 0.1600 0.0000 (  5629 PWs)   bands (ev):

   -12.1296 -11.5797 -11.3459 -11.3174 -11.3174 -11.2651 -11.2135 -11.1555
   -11.1422 -11.1421  -9.6086  -8.1257  -7.8505  -6.5593   1.1205   4.5515
     5.1445   5.2275   6.1676   6.7859   7.0927   7.6366   7.6417   7.6591
     8.2112   8.7871  10.2058  14.2692

          k = 0.0000 0.1800 0.0000 (  5631 PWs)   bands (ev):

   -12.1209 -11.5893 -11.3455 -11.3171 -11.3170 -11.2707 -11.2123 -11.1564
   -11.1426 -11.1425  -9.5882  -8.1636  -7.8202  -6.5729   1.1650   4.4451
     5.1737   5.2509   6.2017   6.7474   7.1238   7.5436   7.6389   7.6646
     8.2143   8.7580  10.3445  14.2176

          k = 0.0000 0.2000 0.0000 (  5633 PWs)   bands (ev):

   -12.1112 -11.6002 -11.3452 -11.3167 -11.3166 -11.2764 -11.2110 -11.1574
   -11.1431 -11.1430  -9.5654  -8.2046  -7.7870  -6.5888   1.2147   4.3333
     5.2059   5.2769   6.2392   6.7061   7.1491   7.4481   7.6414   7.6699
     8.2178   8.7267  10.4873  14.1615

          k = 0.0000 0.2200 0.0000 (  5629 PWs)   bands (ev):

   -12.1006 -11.6124 -11.3447 -11.3163 -11.3162 -11.2821 -11.2096 -11.1585
   -11.1436 -11.1434  -9.5404  -8.2484  -7.7511  -6.6071   1.2694   4.2172
     5.2414   5.3054   6.2800   6.6621   7.1621   7.3617   7.6441   7.6749
     8.2215   8.6937  10.6334  14.1006

          k = 0.0000 0.2400 0.0000 (  5635 PWs)   bands (ev):

   -12.0891 -11.6258 -11.3443 -11.3159 -11.3158 -11.2876 -11.2080 -11.1598
   -11.1440 -11.1439  -9.5130  -8.2945  -7.7129  -6.6278   1.3291   4.0978
[...]
     8.1179   8.1179  14.0427  14.0427

          k = 0.0000 0.5000 0.4628 (  5632 PWs)   bands (ev):

   -11.9588 -11.9588 -11.4040 -11.4040 -11.2375 -11.2375 -11.1882 -11.1882
   -11.1681 -11.1681  -8.5193  -8.5193  -6.7397  -6.7397   2.3949   2.3949
     3.8208   3.8208   5.4623   5.4623   7.3647   7.3647   7.7292   7.7292
     8.1116   8.1116  14.1130  14.1130

          k = 0.0000 0.5000 0.4829 (  5628 PWs)   bands (ev):

   -11.9756 -11.9756 -11.3934 -11.3933 -11.2345 -11.2345 -11.1867 -11.1867
   -11.1676 -11.1676  -8.4976  -8.4976  -6.7185  -6.7185   2.3680   2.3680
     3.7819   3.7819   5.3853   5.3853   7.3556   7.3556   7.7600   7.7600
     8.1069   8.1069  14.1799  14.1799

          k = 0.0000 0.5000 0.5030 (  5634 PWs)   bands (ev):

   -11.9919 -11.9919 -11.3833 -11.3833 -11.2321 -11.2321 -11.1842 -11.1842
   -11.1671 -11.1671  -8.4771  -8.4771  -6.6983  -6.6983   2.3399   2.3399
     3.7481   3.7481   5.3131   5.3131   7.3455   7.3455   7.7881   7.7881
     8.1040   8.1040  14.2433  14.2433

          k = 0.0000 0.5000 0.5232 (  5630 PWs)   bands (ev):

   -12.0075 -12.0075 -11.3740 -11.3740 -11.2304 -11.2304 -11.1806 -11.1806
   -11.1664 -11.1664  -8.4578  -8.4578  -6.6791  -6.6791   2.3114   2.3114
     3.7187   3.7187   5.2460   5.2461   7.3346   7.3346   7.8133   7.8133
     8.1029   8.1029  14.3029  14.3029

          k = 0.0000 0.5000 0.5433 (  5626 PWs)   bands (ev):

   -12.0222 -12.0222 -11.3656 -11.3656 -11.2293 -11.2293 -11.1764 -11.1764
   -11.1655 -11.1655  -8.4398  -8.4398  -6.6611  -6.6611   2.2831   2.2831
     3.6934   3.6934   5.1845   5.1845   7.3233   7.3233   7.8356   7.8356
     8.1036   8.1036  14.3583  14.3583

          k = 0.0000 0.5000 0.5634 (  5626 PWs)   bands (ev):

   -12.0359 -12.0359 -11.3582 -11.3582 -11.2286 -11.2286 -11.1722 -11.1722
   -11.1639 -11.1639  -8.4233  -8.4233  -6.6444  -6.6444   2.2555   2.2555
     3.6714   3.6714   5.1287   5.1287   7.3118   7.3118   7.8549   7.8549
     8.1057   8.1057  14.4095  14.4095

          k = 0.0000 0.5000 0.5835 (  5620 PWs)   bands (ev):

   -12.0485 -12.0485 -11.3518 -11.3518 -11.2283 -11.2283 -11.1692 -11.1692
   -11.1607 -11.1607  -8.4083  -8.4083  -6.6292  -6.6292   2.2294   2.2294
     3.6524   3.6524   5.0789   5.0790   7.3004   7.3004   7.8713   7.8713
     8.1092   8.1092  14.4562  14.4562

          k = 0.0000 0.5000 0.6036 (  5610 PWs)   bands (ev):

   -12.0598 -12.0598 -11.3463 -11.3463 -11.2282 -11.2282 -11.1677 -11.1677
   -11.1559 -11.1559  -8.3948  -8.3948  -6.6155  -6.6155   2.2051   2.2051
     3.6360   3.6360   5.0353   5.0353   7.2895   7.2895   7.8849   7.8849
     8.1137   8.1137  14.4982  14.4982

          k = 0.0000 0.5000 0.6238 (  5610 PWs)   bands (ev):

   -12.0697 -12.0697 -11.3418 -11.3418 -11.2282 -11.2282 -11.1669 -11.1669
   -11.1507 -11.1507  -8.3830  -8.3830  -6.6034  -6.6034   2.1833   2.1833
     3.6220   3.6220   4.9976   4.9976   7.2793   7.2793   7.8959   7.8959
     8.1187   8.1187  14.5352  14.5352

          k = 0.0000 0.5000 0.6439 (  5602 PWs)   bands (ev):

   -12.0783 -12.0783 -11.3381 -11.3381 -11.2283 -11.2283 -11.1664 -11.1664
   -11.1456 -11.1456  -8.3729  -8.3729  -6.5931  -6.5931   2.1642   2.1642
     3.6102   3.6102   4.9661   4.9661   7.2702   7.2702   7.9047   7.9047
     8.1238   8.1238  14.5671  14.5671

          k = 0.0000 0.5000 0.6640 (  5602 PWs)   bands (ev):

   -12.0853 -12.0853 -11.3352 -11.3352 -11.2284 -11.2284 -11.1661 -11.1661
   -11.1411 -11.1411  -8.3646  -8.3646  -6.5845  -6.5845   2.1481   2.1481
     3.6005   3.6005   4.9405   4.9405   7.2623   7.2623   7.9115   7.9115
     8.1286   8.1286  14.5935  14.5935

          k = 0.0000 0.5000 0.6841 (  5600 PWs)   bands (ev):

   -12.0909 -12.0909 -11.3330 -11.3330 -11.2285 -11.2285 -11.1658 -11.1658
   -11.1374 -11.1374  -8.3581  -8.3581  -6.5778  -6.5778   2.1354   2.1354
     3.5930   3.5930   4.9207   4.9208   7.2559   7.2559   7.9165   7.9165
     8.1327   8.1327  14.6143  14.6143

          k = 0.0000 0.5000 0.7043 (  5592 PWs)   bands (ev):

   -12.0949 -12.0949 -11.3315 -11.3315 -11.2285 -11.2285 -11.1656 -11.1656
   -11.1347 -11.1347  -8.3534  -8.3534  -6.5730  -6.5730   2.1262   2.1262
     3.5875   3.5875   4.9068   4.9068   7.2513   7.2513   7.9200   7.9200
     8.1358   8.1358  14.6294  14.6294

          k = 0.0000 0.5000 0.7244 (  5596 PWs)   bands (ev):

   -12.0973 -12.0973 -11.3306 -11.3306 -11.2286 -11.2286 -11.1655 -11.1655
   -11.1330 -11.1330  -8.3505  -8.3505  -6.5701  -6.5701   2.1206   2.1206
     3.5843   3.5843   4.8984   4.8984   7.2484   7.2484   7.9220   7.9220
     8.1378   8.1378  14.6385  14.6385

          k = 0.0000 0.5000 0.7445 (  5596 PWs)   bands (ev):

   -12.0981 -12.0981 -11.3303 -11.3303 -11.2286 -11.2286 -11.1655 -11.1655
   -11.1324 -11.1324  -8.3496  -8.3496  -6.5691  -6.5691   2.1188   2.1188
     3.5832   3.5832   4.8956   4.8956   7.2474   7.2474   7.9227   7.9227
     8.1384   8.1384  14.6415  14.6415

          k = 0.5000 0.5000 0.0000 (  5660 PWs)   bands (ev):

   -11.9293 -11.9293 -11.3230 -11.3230 -11.3209 -11.3209 -11.1795 -11.1795
   -11.1395 -11.1395  -8.1118  -8.1118  -8.0734  -8.0734   3.3760   3.3760
     5.1949   5.1949   6.0098   6.0098   7.0698   7.0698   7.5579   7.5579
     8.0637   8.0637  13.0758  13.0758

          k = 0.5000 0.5000 0.0201 (  5644 PWs)   bands (ev):

   -11.9286 -11.9286 -11.3228 -11.3228 -11.3223 -11.3223 -11.1794 -11.1794
   -11.1397 -11.1397  -8.1116  -8.1116  -8.0709  -8.0709   3.3711   3.3711
     5.1965   5.1965   6.0111   6.0111   7.0554   7.0554   7.5677   7.5677
     8.0639   8.0639  13.0780  13.0780

          k = 0.5000 0.5000 0.0402 (  5660 PWs)   bands (ev):

   -11.9263 -11.9263 -11.3266 -11.3266 -11.3222 -11.3222 -11.1794 -11.1794
   -11.1405 -11.1405  -8.1111  -8.1111  -8.0633  -8.0633   3.3564   3.3564
     5.2011   5.2011   6.0150   6.0150   7.0155   7.0155   7.5940   7.5940
     8.0643   8.0643  13.0845  13.0845

          k = 0.5000 0.5000 0.0604 (  5636 PWs)   bands (ev):

   -11.9226 -11.9226 -11.3336 -11.3336 -11.3211 -11.3211 -11.1792 -11.1792
   -11.1417 -11.1417  -8.1103  -8.1103  -8.0509  -8.0509   3.3321   3.3321
     5.2088   5.2088   6.0215   6.0215   6.9564   6.9564   7.6308   7.6308
     8.0651   8.0651  13.0952  13.0952

          k = 0.5000 0.5000 0.0805 (  5636 PWs)   bands (ev):

   -11.9174 -11.9174 -11.3434 -11.3434 -11.3197 -11.3197 -11.1791 -11.1791
   -11.1434 -11.1434  -8.1091  -8.1091  -8.0336  -8.0336   3.2986   3.2986
     5.2195   5.2195   6.0303   6.0303   6.8838   6.8838   7.6725   7.6725
     8.0662   8.0662  13.1097  13.1097

          k = 0.5000 0.5000 0.1006 (  5628 PWs)   bands (ev):

   -11.9109 -11.9109 -11.3557 -11.3557 -11.3178 -11.3178 -11.1789 -11.1789
   -11.1454 -11.1454  -8.1075  -8.1075  -8.0117  -8.0117   3.2564   3.2564
     5.2330   5.2330   6.0413   6.0413   6.8015   6.8015   7.7156   7.7156
     8.0675   8.0675  13.1277  13.1277

          k = 0.5000 0.5000 0.1207 (  5628 PWs)   bands (ev):

   -11.9029 -11.9029 -11.3706 -11.3706 -11.3155 -11.3155 -11.1786 -11.1786
   -11.1477 -11.1477  -8.1057  -8.1057  -7.9855  -7.9855   3.2061   3.2061
     5.2494   5.2494   6.0540   6.0540   6.7121   6.7121   7.7581   7.7581
     8.0691   8.0691  13.1485  13.1485

          k = 0.5000 0.5000 0.1409 (  5620 PWs)   bands (ev):

   -11.8937 -11.8937 -11.3877 -11.3877 -11.3128 -11.3128 -11.1783 -11.1783
   -11.1503 -11.1503  -8.1035  -8.1035  -7.9551  -7.9551   3.1482   3.1482
     5.2684   5.2684   6.0684   6.0684   6.6174   6.6174   7.7988   7.7988
     8.0709   8.0709  13.1717  13.1717

          k = 0.5000 0.5000 0.1610 (  5628 PWs)   bands (ev):

   -11.8832 -11.8832 -11.4069 -11.4069 -11.3096 -11.3096 -11.1779 -11.1779
   -11.1531 -11.1531  -8.1010  -8.1010  -7.9210  -7.9210   3.0837   3.0837
     5.2898   5.2898   6.0841   6.0841   6.5186   6.5186   7.8371   7.8371
     8.0731   8.0731  13.1966  13.1966

          k = 0.5000 0.5000 0.1811 (  5616 PWs)   bands (ev):

   -11.8716 -11.8716 -11.4280 -11.4280 -11.3061 -11.3061 -11.1775 -11.1775
   -11.1561 -11.1561  -8.0982  -8.0982  -7.8833  -7.8833   3.0131   3.0131
     5.3133   5.3133   6.1010   6.1010   6.4168   6.4168   7.8727   7.8727
     8.0754   8.0754  13.2224  13.2224

          k = 0.5000 0.5000 0.2012 (  5616 PWs)   bands (ev):

   -11.8590 -11.8590 -11.4508 -11.4508 -11.3021 -11.3021 -11.1771 -11.1771
   -11.1592 -11.1592  -8.0951  -8.0951  -7.8424  -7.8424   2.9372   2.9372
     5.3385   5.3385   6.1186   6.1186   6.3132   6.3132   7.9053   7.9053
     8.0780   8.0780  13.2484  13.2484

          k = 0.5000 0.5000 0.2213 (  5624 PWs)   bands (ev):

   -11.8454 -11.8454 -11.4749 -11.4749 -11.2978 -11.2978 -11.1766 -11.1766
   -11.1625 -11.1625  -8.0917  -8.0917  -7.7988  -7.7988   2.8568   2.8568
     5.3646   5.3646   6.1368   6.1368   6.2089   6.2089   7.9348   7.9348
     8.0808   8.0808  13.2740  13.2740

          k = 0.5000 0.5000 0.2415 (  5616 PWs)   bands (ev):

   -11.8310 -11.8310 -11.5002 -11.5002 -11.2930 -11.2930 -11.1762 -11.1762
   -11.1659 -11.1659  -8.0880  -8.0880  -7.7527  -7.7527   2.7726   2.7726
     5.3906   5.3906   6.1058   6.1058   6.1555   6.1555   7.9615   7.9615
     8.0838   8.0838  13.2983  13.2983

          k = 0.5000 0.5000 0.2616 (  5616 PWs)   bands (ev):

   -11.8159 -11.8159 -11.5263 -11.5263 -11.2878 -11.2878 -11.1756 -11.1756
   -11.1694 -11.1694  -8.0842  -8.0842  -7.7045  -7.7045   2.6855   2.6855
     5.4145   5.4145   6.0060   6.0060   6.1745   6.1745   7.9852   7.9852
     8.0869   8.0869  13.3208  13.3208

          k = 0.5000 0.5000 0.2817 (  5616 PWs)   bands (ev):

   -11.8002 -11.8002 -11.5531 -11.5531 -11.2823 -11.2823 -11.1751 -11.1751
   -11.1730 -11.1730  -8.0800  -8.0800  -7.6546  -7.6546   2.5960   2.5960
     5.4324   5.4324   5.9139   5.9139   6.1935   6.1935   8.0060   8.0060
     8.0902   8.0902  13.3407  13.3407

          k = 0.5000 0.5000 0.3018 (  5616 PWs)   bands (ev):

   -11.7841 -11.7841 -11.5802 -11.5802 -11.2764 -11.2764 -11.1766 -11.1766
   -11.1745 -11.1745  -8.0757  -8.0757  -7.6033  -7.6033   2.5049   2.5049
     5.4371   5.4371   5.8371   5.8371   6.2124   6.2124   8.0240   8.0240
     8.0936   8.0936  13.3577  13.3577

          k = 0.5000 0.5000 0.3219 (  5608 PWs)   bands (ev):

   -11.7677 -11.7677 -11.6076 -11.6076 -11.2700 -11.2700 -11.1802 -11.1802
   -11.1740 -11.1740  -8.0712  -8.0712  -7.5511  -7.5511   2.4129   2.4129
     5.4179   5.4179   5.7867   5.7867   6.2313   6.2313   8.0394   8.0394
     8.0971   8.0971  13.3713  13.3713

          k = 0.5000 0.5000 0.3421 (  5616 PWs)   bands (ev):

   -11.7511 -11.7511 -11.6349 -11.6349 -11.2634 -11.2634 -11.1839 -11.1839
   -11.1734 -11.1734  -8.0665  -8.0665  -7.4982  -7.4982   2.3206   2.3206
     5.3683   5.3683   5.7694   5.7694   6.2498   6.2498   8.0521   8.0521
     8.1007   8.1007  13.3812  13.3812

          k = 0.5000 0.5000 0.3622 (  5584 PWs)   bands (ev):

   -11.7345 -11.7345 -11.6619 -11.6619 -11.2563 -11.2563 -11.1875 -11.1875
   -11.1728 -11.1728  -8.0617  -8.0617  -7.4451  -7.4451   2.2287   2.2287
     5.2949   5.2949   5.7791   5.7791   6.2681   6.2681   8.0624   8.0624
     8.1043   8.1043  13.3873  13.3873

          k = 0.5000 0.5000 0.3823 (  5584 PWs)   bands (ev):

   -11.7180 -11.7180 -11.6886 -11.6886 -11.2490 -11.2490 -11.1912 -11.1912
   -11.1722 -11.1722  -8.0568  -8.0568  -7.3920  -7.3920   2.1376   2.1376
     5.2085   5.2085   5.8049   5.8049   6.2859   6.2859   8.0702   8.0702
     8.1080   8.1080  13.3895  13.3895

          k = 0.5000 0.5000 0.4024 (  5584 PWs)   bands (ev):

   -11.7146 -11.7146 -11.7018 -11.7018 -11.2414 -11.2414 -11.1948 -11.1948
   -11.1716 -11.1716  -8.0519  -8.0519  -7.3394  -7.3394   2.0481   2.0481
     5.1167   5.1167   5.8396   5.8396   6.3033   6.3033   8.0757   8.0757
     8.1116   8.1116  13.3880  13.3880

          k = 0.5000 0.5000 0.4226 (  5592 PWs)   bands (ev):

   -11.7400 -11.7400 -11.6860 -11.6860 -11.2336 -11.2336 -11.1983 -11.1983
   -11.1710 -11.1710  -8.0469  -8.0469  -7.2875  -7.2875   1.9606   1.9606
     5.0234   5.0234   5.8794   5.8794   6.3200   6.3200   8.0790   8.0790
     8.1152   8.1152  13.3829  13.3829

          k = 0.5000 0.5000 0.4427 (  5584 PWs)   bands (ev):

   -11.7644 -11.7644 -11.6708 -11.6708 -11.2255 -11.2255 -11.2018 -11.2018
   -11.1704 -11.1704  -8.0419  -8.0419  -7.2368  -7.2368   1.8756   1.8756
     4.9311   4.9311   5.9220   5.9220   6.3362   6.3362   8.0803   8.0803
     8.1187   8.1187  13.3746  13.3746

          k = 0.5000 0.5000 0.4628 (  5580 PWs)   bands (ev):

   -11.7878 -11.7878 -11.6561 -11.6561 -11.2174 -11.2174 -11.2051 -11.2051
   -11.1699 -11.1699  -8.0369  -8.0369  -7.1875  -7.1875   1.7937   1.7937
     4.8412   4.8412   5.9662   5.9662   6.3517   6.3517   8.0797   8.0797
     8.1221   8.1221  13.3636  13.3636

          k = 0.5000 0.5000 0.4829 (  5588 PWs)   bands (ev):

   -11.8101 -11.8101 -11.6422 -11.6422 -11.2091 -11.2091 -11.2083 -11.2083
   -11.1693 -11.1693  -8.0321  -8.0321  -7.1399  -7.1399   1.7153   1.7153
     4.7546   4.7546   6.0110   6.0110   6.3664   6.3664   8.0773   8.0773
     8.1254   8.1254  13.3501  13.3501

          k = 0.5000 0.5000 0.5030 (  5576 PWs)   bands (ev):

   -11.8311 -11.8311 -11.6291 -11.6291 -11.2114 -11.2114 -11.2009 -11.2009
   -11.1688 -11.1688  -8.0273  -8.0273  -7.0945  -7.0945   1.6408   1.6408
     4.6721   4.6721   6.0557   6.0557   6.3804   6.3804   8.0734   8.0734
     8.1287   8.1287  13.3349  13.3349

          k = 0.5000 0.5000 0.5232 (  5612 PWs)   bands (ev):

   -11.8508 -11.8508 -11.6169 -11.6169 -11.2143 -11.2143 -11.1928 -11.1928
   -11.1683 -11.1683  -8.0228  -8.0228  -7.0514  -7.0514   1.5707   1.5707
     4.5943   4.5943   6.0996   6.0996   6.3934   6.3934   8.0681   8.0681
     8.1316   8.1316  13.3183  13.3183

          k = 0.5000 0.5000 0.5433 (  5604 PWs)   bands (ev):

   -11.8690 -11.8690 -11.6057 -11.6057 -11.2170 -11.2170 -11.1849 -11.1849
   -11.1679 -11.1679  -8.0184  -8.0184  -7.0109  -7.0109   1.5053   1.5053
     4.5216   4.5216   6.1423   6.1423   6.4056   6.4056   8.0618   8.0618
     8.1345   8.1345  13.3010  13.3010

          k = 0.5000 0.5000 0.5634 (  5596 PWs)   bands (ev):

   -11.8858 -11.8858 -11.5954 -11.5954 -11.2195 -11.2195 -11.1774 -11.1774
   -11.1674 -11.1674  -8.0143  -8.0143  -6.9734  -6.9734   1.4451   1.4451
     4.4546   4.4546   6.1832   6.1832   6.4168   6.4168   8.0547   8.0547
     8.1372   8.1372  13.2835  13.2835

          k = 0.5000 0.5000 0.5835 (  5588 PWs)   bands (ev):

   -11.9009 -11.9009 -11.5862 -11.5862 -11.2218 -11.2218 -11.1702 -11.1702
   -11.1671 -11.1671  -8.0105  -8.0105  -6.9391  -6.9391   1.3903   1.3903
     4.3937   4.3937   6.2217   6.2217   6.4270   6.4270   8.0470   8.0470
     8.1396   8.1396  13.2663  13.2663

          k = 0.5000 0.5000 0.6036 (  5596 PWs)   bands (ev):

   -11.9144 -11.9144 -11.5781 -11.5781 -11.2239 -11.2239 -11.1667 -11.1667
   -11.1636 -11.1636  -8.0070  -8.0070  -6.9082  -6.9082   1.3411   1.3411
     4.3390   4.3390   6.2572   6.2572   6.4361   6.4361   8.0391   8.0391
     8.1418   8.1418  13.2499  13.2499

          k = 0.5000 0.5000 0.6238 (  5612 PWs)   bands (ev):

   -11.9262 -11.9262 -11.5710 -11.5710 -11.2257 -11.2257 -11.1664 -11.1664
   -11.1576 -11.1576  -8.0039  -8.0039  -6.8810  -6.8810   1.2980   1.2980
     4.2910   4.2910   6.2893   6.2893   6.4440   6.4440   8.0313   8.0313
     8.1437   8.1437  13.2347  13.2347

          k = 0.5000 0.5000 0.6439 (  5588 PWs)   bands (ev):

   -11.9363 -11.9363 -11.5651 -11.5651 -11.2273 -11.2273 -11.1661 -11.1661
   -11.1524 -11.1524  -8.0013  -8.0013  -6.8576  -6.8576   1.2611   1.2611
     4.2500   4.2500   6.3176   6.3176   6.4509   6.4509   8.0240   8.0240
     8.1455   8.1455  13.2212  13.2212

          k = 0.5000 0.5000 0.6640 (  5604 PWs)   bands (ev):

   -11.9446 -11.9446 -11.5602 -11.5602 -11.2286 -11.2286 -11.1659 -11.1659
   -11.1480 -11.1480  -7.9990  -7.9990  -6.8382  -6.8382   1.2307   1.2307
     4.2161   4.2161   6.3414   6.3414   6.4566   6.4566   8.0174   8.0174
     8.1468   8.1468  13.2097  13.2097

          k = 0.5000 0.5000 0.6841 (  5628 PWs)   bands (ev):

   -11.9511 -11.9511 -11.5564 -11.5564 -11.2296 -11.2296 -11.1657 -11.1657
   -11.1444 -11.1444  -7.9973  -7.9973  -6.8230  -6.8230   1.2068   1.2068
     4.1895   4.1895   6.3604   6.3604   6.4610   6.4610   8.0119   8.0119
     8.1478   8.1478  13.2003  13.2003

          k = 0.5000 0.5000 0.7043 (  5604 PWs)   bands (ev):

   -11.9557 -11.9557 -11.5537 -11.5537 -11.2303 -11.2303 -11.1656 -11.1656
   -11.1419 -11.1419  -7.9960  -7.9960  -6.8121  -6.8121   1.1897   1.1897
     4.1705   4.1705   6.3743   6.3743   6.4642   6.4642   8.0078   8.0078
     8.1486   8.1486  13.1936  13.1936

          k = 0.5000 0.5000 0.7244 (  5616 PWs)   bands (ev):

   -11.9585 -11.9585 -11.5520 -11.5520 -11.2307 -11.2307 -11.1655 -11.1655
   -11.1403 -11.1403  -7.9952  -7.9952  -6.8055  -6.8055   1.1794   1.1794
     4.1590   4.1590   6.3827   6.3827   6.4661   6.4661   8.0052   8.0052
     8.1491   8.1491  13.1895  13.1895

          k = 0.5000 0.5000 0.7445 (  5616 PWs)   bands (ev):

   -11.9595 -11.9595 -11.5515 -11.5515 -11.2309 -11.2309 -11.1655 -11.1655
   -11.1398 -11.1398  -7.9949  -7.9949  -6.8032  -6.8032   1.1759   1.1759
     4.1551   4.1551   6.3856   6.3856   6.4667   6.4667   8.0043   8.0043
     8.1493   8.1493  13.1881  13.1881

     Writing output data file SnO2.save
 
     init_run     :      0.34s CPU      0.40s WALL (       1 calls)
     electrons    :    630.29s CPU    635.39s WALL (       1 calls)

     Called by init_run:
     wfcinit      :      0.00s CPU      0.03s WALL (       1 calls)
     wfcinit:atom :      0.41s CPU      0.61s WALL (     284 calls)
     wfcinit:wfcr :     29.37s CPU     29.68s WALL (     284 calls)
     potinit      :      0.05s CPU      0.08s WALL (       1 calls)
     hinit0       :      0.26s CPU      0.26s WALL (       1 calls)

     Called by electrons:
     c_bands      :    630.28s CPU    635.38s WALL (       1 calls)
     v_of_rho     :      0.04s CPU      0.04s WALL (       1 calls)
     v_h          :      0.00s CPU      0.00s WALL (       1 calls)
     v_xc         :      0.04s CPU      0.04s WALL (       1 calls)

     Called by c_bands:
     init_us_2    :      0.74s CPU      0.77s WALL (     284 calls)
     cegterg      :    591.64s CPU    595.92s WALL (     597 calls)

     Called by sum_band:

     Called by *egterg:
     h_psi        :    482.21s CPU    484.63s WALL (    9780 calls)
     g_psi        :      8.85s CPU      8.85s WALL (    8899 calls)
     cdiaghg      :     27.83s CPU     27.95s WALL (    9183 calls)
     cegterg:over :     40.24s CPU     40.33s WALL (    8899 calls)
     cegterg:upda :     33.87s CPU     33.98s WALL (    8899 calls)
     cegterg:last :     18.71s CPU     18.75s WALL (    2049 calls)

     Called by h_psi:
     h_psi:pot    :    479.46s CPU    481.68s WALL (    9780 calls)
     h_psi:calbec :     28.13s CPU     28.23s WALL (    9780 calls)
     vloc_psi     :    424.13s CPU    426.14s WALL (    9780 calls)
     add_vuspsi   :     27.14s CPU     27.25s WALL (    9780 calls)

     General routines
     calbec       :     28.10s CPU     28.20s WALL (    9780 calls)
     fft          :      0.02s CPU      0.02s WALL (      12 calls)
     fftw         :    394.18s CPU    395.69s WALL (  335130 calls)
     davcio       :      0.13s CPU      2.66s WALL (     568 calls)
 
     Parallel routines
     fft_scatt_xy :     36.49s CPU     35.50s WALL (  335142 calls)
     fft_scatt_yz :     42.62s CPU     42.76s WALL (  335142 calls)
 
     PWSCF        : 10m32.77s CPU    10m50.88s WALL

 
   This run was terminated on:  16: 8:17  23May2018            

=------------------------------------------------------------------------------=
   JOB DONE.
=------------------------------------------------------------------------------=
