
     Program PWSCF v.6.2.2 starts on 23May2018 at 15:44:21 

     This program is part of the open-source Quantum ESPRESSO suite
     for quantum simulation of materials; please cite
         "P. Giannozzi et al., J. Phys.:Condens. Matter 21 395502 (2009);
         "P. Giannozzi et al., J. Phys.:Condens. Matter 29 465901 (2017);
          URL http://www.quantum-espresso.org", 
     in publications or presentations arising from this work. More details at
     http://www.quantum-espresso.org/quote

     Parallel version (MPI), running on     2 processors

     MPI processes distributed on     1 nodes
     R & G space division:  proc/nbgrp/npool/nimage =       2
     Reading input from scfield.in
Warning: card &IONS ignored
Warning: card / ignored
Warning: card &CELL ignored
Warning: card / ignored

     Current dimensions of program PWSCF are:
     Max number of different atomic species (ntypx) = 10
     Max number of k-points (npk) =  40000
     Max angular momentum in pseudopotentials (lmaxx) =  3

     Subspace diagonalization in iterative solution of the eigenvalue problem:
     a serial algorithm will be used

 
     Parallelization info
     --------------------
     sticks:   dense  smooth     PW     G-vecs:    dense   smooth      PW
     Min        1000    1000    296                22472    22472    3577
     Max        1001    1001    297                22473    22473    3578
     Sum        2001    2001    593                44945    44945    7155
 


     bravais-lattice index     =            6
     lattice parameter (alat)  =       9.1370  a.u.
     unit-cell volume          =     512.3005 (a.u.)^3
     number of atoms/cell      =            6
     number of atomic types    =            2
     number of electrons       =        52.00
     number of Kohn-Sham states=           28
     kinetic-energy cutoff     =      75.0000  Ry
     charge density cutoff     =     300.0000  Ry
     convergence threshold     =      1.0E-18
     mixing beta               =       0.7000
     number of iterations used =            8  plain     mixing
     Exchange-correlation      = PBE ( 1  4  3  4 0 0)

     celldm(1)=   9.137033  celldm(2)=   0.000000  celldm(3)=   0.671598
     celldm(4)=   0.000000  celldm(5)=   0.000000  celldm(6)=   0.000000

     crystal axes: (cart. coord. in units of alat)
               a(1) = (   1.000000   0.000000   0.000000 )  
               a(2) = (   0.000000   1.000000   0.000000 )  
               a(3) = (   0.000000   0.000000   0.671598 )  

     reciprocal axes: (cart. coord. in units 2 pi/alat)
               b(1) = (  1.000000  0.000000  0.000000 )  
               b(2) = (  0.000000  1.000000  0.000000 )  
               b(3) = (  0.000000  0.000000  1.488987 )  


     PseudoPot. # 1 for Sn read from file:
     ../Pseudo_potentials/Sn_PBE.upf
     MD5 check sum: 78e6386ae56e929f0568ae8bf606a80c
     Pseudo is Norm-conserving + core correction, Zval = 14.0
     Generated using ONCVPSP code by D. R. Hamann
     Using radial grid of 1628 points,  6 beta functions with: 
                l(1) =   0
                l(2) =   0
                l(3) =   1
                l(4) =   1
                l(5) =   2
                l(6) =   2

     PseudoPot. # 2 for O  read from file:
     ../Pseudo_potentials/O_PBE.upf
     MD5 check sum: 3e3f909f7470e8921608ab6b1f57bbae
     Pseudo is Norm-conserving + core correction, Zval =  6.0
     Generated using ONCVPSP code by D. R. Hamann
     Using radial grid of  936 points,  5 beta functions with: 
                l(1) =   0
                l(2) =   0
                l(3) =   1
                l(4) =   1
                l(5) =   2

     atomic species   valence    mass     pseudopotential
        Sn            14.00   118.71000     Sn( 1.00)
        O              6.00    15.99900     O ( 1.00)

      4 Sym. Ops. (no inversion) found



   Cartesian axes

     site n.     atom                  positions (alat units)
         1           Sn  tau(   1) = (  -0.0003320  -0.0003320   0.0000000  )
         2           Sn  tau(   2) = (   0.4996675   0.4996675   0.3357989  )
         3           O   tau(   3) = (   0.8063692   0.1929618   0.3357989  )
         4           O   tau(   4) = (   0.1929618   0.8063692   0.3357989  )
         5           O   tau(   5) = (   0.3063705   0.3063705   0.0000000  )
         6           O   tau(   6) = (   0.6929630   0.6929630   0.0000000  )

     number of k points=    21
                       cart. coord. in units 2pi/alat
        k(    1) = (   0.0000000   0.0000000   0.0000000), wk =   0.0312500
        k(    2) = (   0.0000000   0.0000000   0.3722466), wk =   0.0625000
        k(    3) = (   0.0000000   0.0000000  -0.7444933), wk =   0.0312500
        k(    4) = (   0.0000000   0.2500000   0.0000000), wk =   0.1250000
        k(    5) = (   0.0000000   0.2500000   0.3722466), wk =   0.2500000
        k(    6) = (   0.0000000   0.2500000  -0.7444933), wk =   0.1250000
        k(    7) = (   0.0000000  -0.5000000   0.0000000), wk =   0.0625000
        k(    8) = (   0.0000000  -0.5000000   0.3722466), wk =   0.1250000
        k(    9) = (   0.0000000  -0.5000000  -0.7444933), wk =   0.0625000
        k(   10) = (   0.2500000   0.2500000   0.0000000), wk =   0.0625000
        k(   11) = (   0.2500000   0.2500000   0.3722466), wk =   0.1250000
        k(   12) = (   0.2500000   0.2500000  -0.7444933), wk =   0.0625000
        k(   13) = (   0.2500000  -0.5000000   0.0000000), wk =   0.1250000
        k(   14) = (   0.2500000  -0.5000000   0.3722466), wk =   0.2500000
        k(   15) = (   0.2500000  -0.5000000  -0.7444933), wk =   0.1250000
        k(   16) = (  -0.5000000  -0.5000000   0.0000000), wk =   0.0312500
        k(   17) = (  -0.5000000  -0.5000000   0.3722466), wk =   0.0625000
        k(   18) = (  -0.5000000  -0.5000000  -0.7444933), wk =   0.0312500
        k(   19) = (   0.2500000  -0.2500000   0.0000000), wk =   0.0625000
        k(   20) = (   0.2500000  -0.2500000   0.3722466), wk =   0.1250000
        k(   21) = (   0.2500000  -0.2500000  -0.7444933), wk =   0.0625000

     Dense  grid:    44945 G-vectors     FFT dimensions: (  54,  54,  36)

     Estimated max dynamical RAM per process >      58.06 MB

     Estimated total dynamical RAM >     116.13 MB

     Check: negative/imaginary core charge=   -0.000002    0.000000

     Initial potential from superposition of free atoms

     starting charge   51.99690, renormalised to   52.00000
     Starting wfc are   34 randomized atomic wfcs

     total cpu time spent up to now is        3.0 secs

     Self-consistent Calculation

     iteration #  1     ecut=    75.00 Ry     beta= 0.70
     Davidson diagonalization with overlap
     ethr =  1.00E-02,  avg # of iterations =  2.0

     total cpu time spent up to now is        8.9 secs

     total energy              =    -446.85053611 Ry
     Harris-Foulkes estimate   =    -448.03306770 Ry
     estimated scf accuracy    <       1.60496155 Ry

     iteration #  2     ecut=    75.00 Ry     beta= 0.70
     Davidson diagonalization with overlap
     ethr =  3.09E-03,  avg # of iterations =  2.9

     total cpu time spent up to now is       15.8 secs

     total energy              =    -447.25466942 Ry
     Harris-Foulkes estimate   =    -448.06991921 Ry
     estimated scf accuracy    <       1.68812458 Ry

     iteration #  3     ecut=    75.00 Ry     beta= 0.70
     Davidson diagonalization with overlap
     ethr =  3.09E-03,  avg # of iterations =  2.0

     total cpu time spent up to now is       22.1 secs

     total energy              =    -447.58609089 Ry
     Harris-Foulkes estimate   =    -447.58695252 Ry
     estimated scf accuracy    <       0.00657352 Ry

     iteration #  4     ecut=    75.00 Ry     beta= 0.70
     Davidson diagonalization with overlap
     ethr =  1.26E-05,  avg # of iterations =  3.4

     total cpu time spent up to now is       29.7 secs

     total energy              =    -447.58848066 Ry
     Harris-Foulkes estimate   =    -447.58873951 Ry
     estimated scf accuracy    <       0.00056076 Ry

     iteration #  5     ecut=    75.00 Ry     beta= 0.70
     Davidson diagonalization with overlap
     ethr =  1.08E-06,  avg # of iterations =  1.2

     total cpu time spent up to now is       34.9 secs

     total energy              =    -447.58849928 Ry
     Harris-Foulkes estimate   =    -447.58851110 Ry
     estimated scf accuracy    <       0.00003271 Ry

     iteration #  6     ecut=    75.00 Ry     beta= 0.70
     Davidson diagonalization with overlap
     ethr =  6.29E-08,  avg # of iterations =  2.7

     total cpu time spent up to now is       42.3 secs

     total energy              =    -447.58850688 Ry
     Harris-Foulkes estimate   =    -447.58851538 Ry
     estimated scf accuracy    <       0.00002317 Ry

     iteration #  7     ecut=    75.00 Ry     beta= 0.70
     Davidson diagonalization with overlap
     ethr =  4.46E-08,  avg # of iterations =  2.0

     total cpu time spent up to now is       48.3 secs

     total energy              =    -447.58851032 Ry
     Harris-Foulkes estimate   =    -447.58851143 Ry
     estimated scf accuracy    <       0.00000234 Ry

     iteration #  8     ecut=    75.00 Ry     beta= 0.70
     Davidson diagonalization with overlap
     ethr =  4.49E-09,  avg # of iterations =  2.0

     total cpu time spent up to now is       54.8 secs

     total energy              =    -447.58851072 Ry
     Harris-Foulkes estimate   =    -447.58851072 Ry
     estimated scf accuracy    <       0.00000006 Ry

     iteration #  9     ecut=    75.00 Ry     beta= 0.70
     Davidson diagonalization with overlap
     ethr =  1.17E-10,  avg # of iterations =  3.0

     total cpu time spent up to now is       62.2 secs

     total energy              =    -447.58851074 Ry
     Harris-Foulkes estimate   =    -447.58851075 Ry
     estimated scf accuracy    <          8.4E-09 Ry

     iteration # 10     ecut=    75.00 Ry     beta= 0.70
     Davidson diagonalization with overlap
     ethr =  1.61E-11,  avg # of iterations =  2.0

     total cpu time spent up to now is       68.6 secs

     total energy              =    -447.58851075 Ry
     Harris-Foulkes estimate   =    -447.58851075 Ry
     estimated scf accuracy    <          5.4E-10 Ry

     iteration # 11     ecut=    75.00 Ry     beta= 0.70
     Davidson diagonalization with overlap
     ethr =  1.05E-12,  avg # of iterations =  2.3

     total cpu time spent up to now is       75.2 secs

     total energy              =    -447.58851075 Ry
     Harris-Foulkes estimate   =    -447.58851075 Ry
     estimated scf accuracy    <          1.1E-11 Ry

     iteration # 12     ecut=    75.00 Ry     beta= 0.70
     Davidson diagonalization with overlap
     ethr =  1.00E-13,  avg # of iterations =  2.0

     total cpu time spent up to now is       81.2 secs

     total energy              =    -447.58851075 Ry
     Harris-Foulkes estimate   =    -447.58851075 Ry
     estimated scf accuracy    <          6.3E-12 Ry

     iteration # 13     ecut=    75.00 Ry     beta= 0.70
     Davidson diagonalization with overlap
     ethr =  1.00E-13,  avg # of iterations =  1.4

     total cpu time spent up to now is       86.5 secs

     total energy              =    -447.58851075 Ry
     Harris-Foulkes estimate   =    -447.58851075 Ry
     estimated scf accuracy    <          1.0E-12 Ry

     iteration # 14     ecut=    75.00 Ry     beta= 0.70
     Davidson diagonalization with overlap
     ethr =  1.00E-13,  avg # of iterations =  1.0

     total cpu time spent up to now is       91.7 secs

     total energy              =    -447.58851075 Ry
     Harris-Foulkes estimate   =    -447.58851075 Ry
     estimated scf accuracy    <          5.5E-14 Ry

     iteration # 15     ecut=    75.00 Ry     beta= 0.70
     Davidson diagonalization with overlap
     ethr =  1.00E-13,  avg # of iterations =  1.0

     total cpu time spent up to now is       97.2 secs

     total energy              =    -447.58851075 Ry
     Harris-Foulkes estimate   =    -447.58851075 Ry
     estimated scf accuracy    <          5.0E-15 Ry

     iteration # 16     ecut=    75.00 Ry     beta= 0.70
     Davidson diagonalization with overlap
     ethr =  1.00E-13,  avg # of iterations =  1.0

     total cpu time spent up to now is      102.7 secs

     total energy              =    -447.58851075 Ry
     Harris-Foulkes estimate   =    -447.58851075 Ry
     estimated scf accuracy    <          1.1E-15 Ry

     iteration # 17     ecut=    75.00 Ry     beta= 0.70
     Davidson diagonalization with overlap
     ethr =  1.00E-13,  avg # of iterations =  1.0

     total cpu time spent up to now is      108.2 secs

     total energy              =    -447.58851075 Ry
     Harris-Foulkes estimate   =    -447.58851075 Ry
     estimated scf accuracy    <          7.0E-17 Ry

     iteration # 18     ecut=    75.00 Ry     beta= 0.70
     Davidson diagonalization with overlap
     ethr =  1.00E-13,  avg # of iterations =  1.0

     total cpu time spent up to now is      113.5 secs

     total energy              =    -447.58851075 Ry
     Harris-Foulkes estimate   =    -447.58851075 Ry
     estimated scf accuracy    <          4.2E-18 Ry

     iteration # 19     ecut=    75.00 Ry     beta= 0.70
     Davidson diagonalization with overlap
     ethr =  1.00E-13,  avg # of iterations =  1.0

     total cpu time spent up to now is      118.6 secs

     End of self-consistent calculation

          k = 0.0000 0.0000 0.0000 (  5609 PWs)   bands (ev):

   -12.1626 -11.5450 -11.3470 -11.3189 -11.3189 -11.2385 -11.2181 -11.1520
   -11.1404 -11.1404  -9.6859  -7.9707  -7.9707  -6.5142   0.9520   5.0331
     5.0331   5.1380   6.0354   6.8925   6.9464   7.6277   7.6277   8.1988
     8.1988   8.9050   9.4984  14.4954

          k = 0.0000 0.0000 0.3722 (  5617 PWs)   bands (ev):

   -11.9331 -11.6684 -11.6684 -11.3667 -11.2649 -11.2522 -11.2009 -11.1882
   -11.1882 -11.1543  -9.3178  -7.3321  -7.3321  -6.9288   1.0010   4.3325
     4.8040   5.4731   5.4731   6.1603   6.1603   6.3414   6.4217   8.1120
     8.1120   8.4645  12.0916  15.1552

          k = 0.0000 0.0000-0.7445 (  5592 PWs)   bands (ev):

   -11.9501 -11.9501 -11.5390 -11.5390 -11.2291 -11.2291 -11.1701 -11.1701
   -11.1439 -11.1439  -8.1430  -8.1430  -6.7335  -6.7335   1.8690   1.8690
     4.8539   4.8539   5.2050   5.2050   6.3255   6.3255   7.4124   7.4124
     7.7393   7.7393  14.3982  14.3982

          k = 0.0000 0.2500 0.0000 (  5635 PWs)   bands (ev):

   -12.0830 -11.6330 -11.3440 -11.3157 -11.3156 -11.2902 -11.2072 -11.1604
   -11.1443 -11.1441  -9.4985  -8.3184  -7.6929  -6.6391   1.3608   4.0371
     5.3004   5.3527   6.3468   6.5918   7.1183   7.2886   7.6484   7.6813
     8.2276   8.6421  10.8569  14.0000

          k = 0.0000 0.2500 0.3722 (  5630 PWs)   bands (ev):

   -11.9344 -11.7627 -11.5918 -11.3650 -11.2619 -11.2483 -11.1968 -11.1830
   -11.1822 -11.1584  -9.1511  -7.8801  -7.1617  -6.7338   1.4021   3.8184
     4.2377   4.5802   5.8786   5.9479   6.4348   6.9891   7.1456   8.0315
     8.0601   8.4349  12.5523  14.8495

          k = 0.0000 0.2500-0.7445 (  5594 PWs)   bands (ev):

   -12.0366 -12.0366 -11.4196 -11.4196 -11.2323 -11.2323 -11.1677 -11.1677
   -11.1383 -11.1383  -8.2496  -8.2496  -6.6471  -6.6471   1.9678   1.9678
     4.1742   4.1742   4.9509   4.9509   7.1072   7.1072   7.6026   7.6026
     7.8400   7.8400  14.4926  14.4926

          k = 0.0000-0.5000 0.0000 (  5638 PWs)   bands (ev):

   -11.8700 -11.8700 -11.3317 -11.3317 -11.3122 -11.3122 -11.1826 -11.1826
   -11.1481 -11.1481  -8.9779  -8.9779  -7.1034  -7.1034   2.5030   2.5030
     5.9181   5.9181   6.0414   6.0415   7.0261   7.0261   7.6873   7.6873
     8.3164   8.3165  12.7026  12.7026

          k = 0.0000-0.5000 0.3722 (  5634 PWs)   bands (ev):

   -11.8849 -11.8849 -11.4498 -11.4498 -11.2540 -11.2540 -11.1863 -11.1863
   -11.1693 -11.1693  -8.6283  -8.6282  -6.8411  -6.8411   2.4886   2.4886
     4.0708   4.0708   5.8511   5.8511   7.3812   7.3812   7.5712   7.5712
     8.1511   8.1511  13.7761  13.7761

          k = 0.0000-0.5000-0.7445 (  5596 PWs)   bands (ev):

   -12.0981 -12.0981 -11.3303 -11.3303 -11.2286 -11.2286 -11.1655 -11.1655
   -11.1324 -11.1324  -8.3496  -8.3496  -6.5691  -6.5691   2.1188   2.1188
     3.5832   3.5832   4.8956   4.8956   7.2474   7.2474   7.9227   7.9227
     8.1384   8.1384  14.6415  14.6415

          k = 0.2500 0.2500 0.0000 (  5644 PWs)   bands (ev):

   -12.0375 -11.7201 -11.3389 -11.3199 -11.3122 -11.3078 -11.1990 -11.1658
   -11.1481 -11.1400  -9.2878  -8.0564  -8.0220  -6.8412   1.7902   3.9375
     5.0821   5.5257   6.4141   6.5477   6.6397   7.3105   7.5926   7.6908
     8.1406   8.4626  11.6190  13.7220

          k = 0.2500 0.2500 0.3722 (  5619 PWs)   bands (ev):

   -11.9181 -11.7073 -11.6720 -11.3993 -11.2635 -11.2417 -11.1954 -11.1827
   -11.1813 -11.1620  -8.9495  -7.8533  -7.3754  -6.7581   1.6761   3.0420
     4.3785   5.4140   5.5583   5.6169   6.1935   7.2401   7.5908   7.8376
     8.1151   8.4311  12.8231  14.4131

          k = 0.2500 0.2500-0.7445 (  5618 PWs)   bands (ev):

   -12.0979 -11.9549 -11.5470 -11.3216 -11.2351 -11.2324 -11.1677 -11.1654
   -11.1381 -11.1347  -8.3504  -8.0699  -6.7685  -6.5670   1.4858   2.0749
     3.8987   4.4074   4.4641   6.0556   6.3450   7.7137   7.7349   7.7753
     7.8297   7.9584  13.9010  14.4346

          k = 0.2500-0.5000 0.0000 (  5618 PWs)   bands (ev):

   -11.9006 -11.9006 -11.3270 -11.3270 -11.3167 -11.3167 -11.1810 -11.1810
   -11.1437 -11.1437  -8.7233  -8.7233  -7.4108  -7.4108   2.8779   2.8780
     5.6841   5.6841   5.9623   5.9623   7.0423   7.0423   7.6243   7.6243
     8.1879   8.1879  12.8908  12.8908

          k = 0.2500-0.5000 0.3722 (  5614 PWs)   bands (ev):

   -11.8370 -11.8370 -11.5315 -11.5315 -11.2534 -11.2534 -11.1885 -11.1885
   -11.1712 -11.1712  -8.4033  -8.4033  -7.0693  -7.0692   2.3004   2.3004
     4.7130   4.7130   5.5675   5.5675   7.0920   7.0920   7.7073   7.7073
     8.2208   8.2209  13.5606  13.5606

          k = 0.2500-0.5000-0.7445 (  5604 PWs)   bands (ev):

   -12.0406 -12.0406 -11.4276 -11.4276 -11.2329 -11.2329 -11.1655 -11.1655
   -11.1361 -11.1361  -8.1840  -8.1840  -6.6727  -6.6727   1.5327   1.5327
     4.1982   4.1982   5.0515   5.0515   7.4067   7.4067   7.9052   7.9052
     8.0266   8.0266  13.7625  13.7625

          k =-0.5000-0.5000 0.0000 (  5660 PWs)   bands (ev):

   -11.9293 -11.9293 -11.3230 -11.3230 -11.3209 -11.3209 -11.1795 -11.1795
   -11.1395 -11.1395  -8.1118  -8.1118  -8.0734  -8.0734   3.3760   3.3760
     5.1949   5.1949   6.0098   6.0098   7.0698   7.0698   7.5579   7.5579
     8.0637   8.0637  13.0758  13.0758

          k =-0.5000-0.5000 0.3722 (  5584 PWs)   bands (ev):

   -11.7262 -11.7262 -11.6753 -11.6753 -11.2527 -11.2527 -11.1894 -11.1894
   -11.1725 -11.1725  -8.0593  -8.0593  -7.4185  -7.4185   2.1830   2.1830
     5.2528   5.2528   5.7905   5.7905   6.2771   6.2771   8.0666   8.0666
     8.1061   8.1061  13.3889  13.3889

          k =-0.5000-0.5000-0.7445 (  5616 PWs)   bands (ev):

   -11.9595 -11.9595 -11.5515 -11.5515 -11.2309 -11.2309 -11.1655 -11.1655
   -11.1398 -11.1398  -7.9949  -7.9949  -6.8032  -6.8032   1.1759   1.1759
     4.1551   4.1551   6.3856   6.3856   6.4667   6.4667   8.0043   8.0043
     8.1493   8.1493  13.1881  13.1881

          k = 0.2500-0.2500 0.0000 (  5644 PWs)   bands (ev):

   -12.0375 -11.7201 -11.3389 -11.3199 -11.3122 -11.3078 -11.1990 -11.1658
   -11.1481 -11.1400  -9.2878  -8.0564  -8.0220  -6.8412   1.7902   3.9375
     5.0821   5.5257   6.4141   6.5477   6.6397   7.3105   7.5926   7.6908
     8.1406   8.4626  11.6190  13.7220

          k = 0.2500-0.2500 0.3722 (  5619 PWs)   bands (ev):

   -11.9181 -11.7073 -11.6720 -11.3993 -11.2635 -11.2417 -11.1954 -11.1827
   -11.1813 -11.1620  -8.9495  -7.8533  -7.3754  -6.7581   1.6761   3.0420
     4.3785   5.4140   5.5583   5.6169   6.1935   7.2401   7.5908   7.8376
     8.1151   8.4311  12.8231  14.4131

          k = 0.2500-0.2500-0.7445 (  5618 PWs)   bands (ev):

   -12.0979 -11.9549 -11.5470 -11.3216 -11.2351 -11.2324 -11.1677 -11.1654
   -11.1381 -11.1347  -8.3504  -8.0699  -6.7685  -6.5670   1.4858   2.0749
     3.8987   4.4074   4.4641   6.0556   6.3450   7.7137   7.7349   7.7753
     7.8297   7.9584  13.9010  14.4346

     highest occupied, lowest unoccupied level (ev):     8.9050    9.4984

!    total energy              =    -447.58851075 Ry
     Harris-Foulkes estimate   =    -447.58851075 Ry
     estimated scf accuracy    <          6.7E-19 Ry

     The total energy is the sum of the following terms:

     one-electron contribution =    -125.64626571 Ry
     hartree contribution      =     101.53065184 Ry
     xc contribution           =    -122.07285716 Ry
     ewald contribution        =    -301.40003973 Ry

     convergence has been achieved in  19 iterations

     Writing output data file SnO2.save
 
     init_run     :      2.64s CPU      2.73s WALL (       1 calls)
     electrons    :    115.05s CPU    115.67s WALL (       1 calls)

     Called by init_run:
     wfcinit      :      2.33s CPU      2.41s WALL (       1 calls)
     potinit      :      0.12s CPU      0.12s WALL (       1 calls)
     hinit0       :      0.17s CPU      0.18s WALL (       1 calls)

     Called by electrons:
     c_bands      :     98.08s CPU     98.58s WALL (      19 calls)
     sum_band     :     15.98s CPU     16.05s WALL (      19 calls)
     v_of_rho     :      0.83s CPU      0.84s WALL (      20 calls)
     mix_rho      :      0.18s CPU      0.19s WALL (      19 calls)

     Called by c_bands:
     init_us_2    :      2.12s CPU      2.14s WALL (     819 calls)
     cegterg      :     87.26s CPU     87.72s WALL (     399 calls)

     Called by sum_band:

     Called by *egterg:
     h_psi        :     77.33s CPU     77.68s WALL (    1153 calls)
     g_psi        :      0.98s CPU      0.96s WALL (     733 calls)
     cdiaghg      :      1.97s CPU      2.03s WALL (    1132 calls)

     Called by h_psi:
     h_psi:pot    :     76.93s CPU     77.28s WALL (    1153 calls)
     h_psi:calbec :      4.13s CPU      4.10s WALL (    1153 calls)
     vloc_psi     :     68.81s CPU     69.16s WALL (    1153 calls)
     add_vuspsi   :      3.99s CPU      4.01s WALL (    1153 calls)

     General routines
     calbec       :      4.12s CPU      4.10s WALL (    1153 calls)
     fft          :      0.38s CPU      0.39s WALL (     201 calls)
     ffts         :      0.03s CPU      0.04s WALL (      19 calls)
     fftw         :     77.02s CPU     77.32s WALL (   65524 calls)
 
     Parallel routines
     fft_scatt_xy :      7.44s CPU      7.64s WALL (   65744 calls)
     fft_scatt_yz :      8.38s CPU      8.65s WALL (   65744 calls)
 
     PWSCF        :  1m58.01s CPU     1m59.68s WALL

 
   This run was terminated on:  15:46:21  23May2018            

=------------------------------------------------------------------------------=
   JOB DONE.
=------------------------------------------------------------------------------=
